/*--------------------------------*- C++ -*----------------------------------*\
  =========                 |
  \\      /  F ield         | OpenFOAM: The Open Source CFD Toolbox
   \\    /   O peration     | Website:  https://openfoam.org
    \\  /    A nd           | Version:  8
     \\/     M anipulation  |
\*---------------------------------------------------------------------------*/
FoamFile
{
    version     2.0;
    format      ascii;
    class       surfaceScalarField;
    location    "51.5";
    object      phi;
}
// * * * * * * * * * * * * * * * * * * * * * * * * * * * * * * * * * * * * * //

dimensions      [0 3 -1 0 0 0 0];

internalField   nonuniform List<scalar> 
22960
(
-1.97623e-07
1.97924e-07
-8.09197e-07
6.11574e-07
-1.61216e-06
8.02961e-07
-2.49155e-06
8.79391e-07
-3.39312e-06
9.01571e-07
-4.29828e-06
9.05158e-07
-5.20311e-06
9.04835e-07
-6.10777e-06
9.04655e-07
-7.01306e-06
9.05291e-07
-7.91966e-06
9.06606e-07
-8.82805e-06
9.08386e-07
-9.73854e-06
9.10488e-07
-1.06514e-05
9.12828e-07
-1.15667e-05
9.15356e-07
-1.24848e-05
9.18035e-07
-1.34056e-05
9.20839e-07
-1.43293e-05
9.23739e-07
-1.5256e-05
9.2671e-07
-1.61858e-05
9.29726e-07
-1.71185e-05
9.32758e-07
-1.80543e-05
9.35777e-07
-1.89931e-05
9.38752e-07
-1.99347e-05
9.41651e-07
-2.08791e-05
9.4444e-07
-2.18262e-05
9.47082e-07
-2.27758e-05
9.49539e-07
-2.37275e-05
9.51771e-07
-2.46813e-05
9.53739e-07
-2.56367e-05
9.55397e-07
-2.65934e-05
9.56704e-07
-2.7551e-05
9.57613e-07
-2.85091e-05
9.58078e-07
-2.94671e-05
9.58053e-07
-3.04246e-05
9.57492e-07
-3.1381e-05
9.56347e-07
-3.23355e-05
9.54573e-07
-3.32877e-05
9.52127e-07
-3.42366e-05
9.48964e-07
-3.51817e-05
9.45044e-07
-3.6122e-05
9.40326e-07
-3.70568e-05
9.3477e-07
-3.79851e-05
9.28334e-07
-3.89061e-05
9.20965e-07
-3.98187e-05
9.12591e-07
-4.07217e-05
9.03093e-07
-4.1614e-05
8.92262e-07
-4.24937e-05
8.79703e-07
-4.33584e-05
8.6464e-07
-4.42039e-05
8.45537e-07
-4.50232e-05
8.19335e-07
-4.58034e-05
7.80133e-07
-4.65209e-05
7.17516e-07
-4.71369e-05
6.15998e-07
-4.75953e-05
4.58422e-07
-4.78432e-05
2.47915e-07
-4.80006e-05
1.57377e-07
-4.88287e-05
8.281e-07
-5.1703e-05
2.87429e-06
-6.55488e-05
1.38459e-05
3.28767e-05
-9.84255e-05
-6.28186e-07
8.2611e-07
-1.94519e-06
1.92858e-06
-3.59236e-06
2.45013e-06
-5.38425e-06
2.67128e-06
-7.23206e-06
2.74938e-06
-9.09951e-06
2.77261e-06
-1.09737e-05
2.77907e-06
-1.28511e-05
2.78199e-06
-1.47309e-05
2.78509e-06
-1.66134e-05
2.78909e-06
-1.84989e-05
2.79393e-06
-2.03878e-05
2.79943e-06
-2.22805e-05
2.80546e-06
-2.4177e-05
2.81192e-06
-2.60777e-05
2.81873e-06
-2.79827e-05
2.8258e-06
-2.9892e-05
2.83307e-06
-3.18058e-05
2.84046e-06
-3.37239e-05
2.84789e-06
-3.56465e-05
2.85529e-06
-3.75733e-05
2.86257e-06
-3.95042e-05
2.86965e-06
-4.14389e-05
2.87642e-06
-4.33773e-05
2.8828e-06
-4.53189e-05
2.88867e-06
-4.72633e-05
2.89393e-06
-4.921e-05
2.89848e-06
-5.11584e-05
2.90219e-06
-5.3108e-05
2.90495e-06
-5.50579e-05
2.90663e-06
-5.70074e-05
2.90713e-06
-5.89557e-05
2.90631e-06
-6.09017e-05
2.90406e-06
-6.28444e-05
2.90028e-06
-6.47829e-05
2.89484e-06
-6.6716e-05
2.88767e-06
-6.86426e-05
2.87868e-06
-7.05614e-05
2.86781e-06
-7.24714e-05
2.85503e-06
-7.43714e-05
2.84033e-06
-7.62604e-05
2.82375e-06
-7.81374e-05
2.80537e-06
-8.00018e-05
2.78532e-06
-8.1853e-05
2.76377e-06
-8.36908e-05
2.74095e-06
-8.55157e-05
2.71709e-06
-8.73283e-05
2.69237e-06
-8.91305e-05
2.66679e-06
-9.09248e-05
2.63991e-06
-9.2716e-05
2.61052e-06
-9.45126e-05
2.57666e-06
-9.63324e-05
2.53741e-06
-9.82172e-05
2.50074e-06
-0.000100266
2.50732e-06
-0.000102716
2.69793e-06
-0.000106054
3.49515e-06
-0.000111065
5.83937e-06
-0.000119245
1.10537e-05
-0.000130073
2.46743e-05
4.28748e-05
-0.000140071
-8.45264e-07
1.67137e-06
-2.52592e-06
3.60923e-06
-4.60028e-06
4.5245e-06
-6.8436e-06
4.91459e-06
-9.15358e-06
5.05936e-06
-1.14882e-05
5.10724e-06
-1.3832e-05
5.12281e-06
-1.61799e-05
5.1299e-06
-1.85307e-05
5.13594e-06
-2.08844e-05
5.14277e-06
-2.32411e-05
5.15062e-06
-2.5601e-05
5.15937e-06
-2.79644e-05
5.16887e-06
-3.03315e-05
5.17896e-06
-3.27023e-05
5.18951e-06
-3.50769e-05
5.2004e-06
-3.74553e-05
5.21151e-06
-3.98376e-05
5.22271e-06
-4.22235e-05
5.23387e-06
-4.46131e-05
5.24483e-06
-4.7006e-05
5.25547e-06
-4.9402e-05
5.26562e-06
-5.18007e-05
5.27512e-06
-5.42017e-05
5.2838e-06
-5.66045e-05
5.29148e-06
-5.90085e-05
5.29797e-06
-6.14131e-05
5.30309e-06
-6.38176e-05
5.30663e-06
-6.6221e-05
5.30839e-06
-6.86226e-05
5.30817e-06
-7.10212e-05
5.30578e-06
-7.34159e-05
5.301e-06
-7.58055e-05
5.29367e-06
-7.81888e-05
5.28361e-06
-8.05646e-05
5.27065e-06
-8.29317e-05
5.25469e-06
-8.52886e-05
5.23565e-06
-8.76343e-05
5.21348e-06
-8.99675e-05
5.18822e-06
-9.22872e-05
5.16e-06
-9.45925e-05
5.12905e-06
-9.68828e-05
5.09574e-06
-9.91581e-05
5.0606e-06
-0.000101419
5.02441e-06
-0.000103666
4.98817e-06
-0.000105902
4.95324e-06
-0.000108131
4.92136e-06
-0.000110359
4.89482e-06
-0.000112596
4.87662e-06
-0.000114857
4.87126e-06
-0.000117167
4.88672e-06
-0.000119569
4.94018e-06
-0.000122141
5.07262e-06
-0.000125018
5.38394e-06
-0.000128429
6.1088e-06
-0.00013267
7.73662e-06
-0.000137942
1.11107e-05
-0.000144414
1.75261e-05
-0.000149246
2.95066e-05
4.40804e-05
-0.000150452
-9.42309e-07
2.61368e-06
-2.79593e-06
5.46285e-06
-5.06865e-06
6.79721e-06
-7.51633e-06
7.36228e-06
-1.00323e-05
7.57533e-06
-1.25737e-05
7.64865e-06
-1.51249e-05
7.67398e-06
-1.76806e-05
7.68566e-06
-2.02395e-05
7.69481e-06
-2.28011e-05
7.7044e-06
-2.53655e-05
7.71503e-06
-2.79328e-05
7.72666e-06
-3.05031e-05
7.73914e-06
-3.30764e-05
7.75229e-06
-3.56529e-05
7.76595e-06
-3.82324e-05
7.77995e-06
-4.0815e-05
7.79411e-06
-4.34005e-05
7.80826e-06
-4.59889e-05
7.8222e-06
-4.85798e-05
7.83573e-06
-5.1173e-05
7.84865e-06
-5.3768e-05
7.86072e-06
-5.63646e-05
7.8717e-06
-5.89622e-05
7.88136e-06
-6.15601e-05
7.88943e-06
-6.41578e-05
7.89565e-06
-6.67545e-05
7.89974e-06
-6.93493e-05
7.90142e-06
-7.19413e-05
7.9004e-06
-7.45295e-05
7.89639e-06
-7.71128e-05
7.88912e-06
-7.96902e-05
7.87832e-06
-8.22602e-05
7.86373e-06
-8.48217e-05
7.84511e-06
-8.73734e-05
7.8223e-06
-8.99138e-05
7.79513e-06
-9.24417e-05
7.76355e-06
-9.49558e-05
7.72757e-06
-9.74549e-05
7.68733e-06
-9.9938e-05
7.64312e-06
-0.000102404
7.59544e-06
-0.000104854
7.54503e-06
-0.000107286
7.49299e-06
-0.000109703
7.44083e-06
-0.000112105
7.39065e-06
-0.000114497
7.34536e-06
-0.000116885
7.30891e-06
-0.000119277
7.28688e-06
-0.000121687
7.28727e-06
-0.000124138
7.32229e-06
-0.000126664
7.41189e-06
-0.000129315
7.59129e-06
-0.000132168
7.92632e-06
-0.000135328
8.54362e-06
-0.000138901
9.68158e-06
-0.000142913
1.17484e-05
-0.000147151
1.53494e-05
-0.000150917
2.12919e-05
-0.000151779
3.03681e-05
4.06353e-05
-0.000148334
-9.76481e-07
3.59016e-06
-2.90335e-06
7.38973e-06
-5.26079e-06
9.15465e-06
-7.79469e-06
9.89618e-06
-1.03961e-05
1.01768e-05
-1.30222e-05
1.02747e-05
-1.56577e-05
1.03095e-05
-1.82976e-05
1.03256e-05
-2.09406e-05
1.03378e-05
-2.35863e-05
1.03501e-05
-2.62346e-05
1.03633e-05
-2.88855e-05
1.03776e-05
-3.15392e-05
1.03928e-05
-3.41956e-05
1.04087e-05
-3.68548e-05
1.04251e-05
-3.95167e-05
1.04418e-05
-4.21812e-05
1.04586e-05
-4.48481e-05
1.04752e-05
-4.75174e-05
1.04914e-05
-5.01886e-05
1.0507e-05
-5.28616e-05
1.05216e-05
-5.55359e-05
1.0535e-05
-5.8211e-05
1.05468e-05
-6.08864e-05
1.05567e-05
-6.35614e-05
1.05645e-05
-6.62354e-05
1.05696e-05
-6.89075e-05
1.05719e-05
-7.15769e-05
1.05708e-05
-7.42427e-05
1.05661e-05
-7.69036e-05
1.05574e-05
-7.95587e-05
1.05442e-05
-8.22067e-05
1.05263e-05
-8.48463e-05
1.05033e-05
-8.74761e-05
1.0475e-05
-9.00949e-05
1.0441e-05
-9.2701e-05
1.04013e-05
-9.52933e-05
1.03558e-05
-9.78702e-05
1.03045e-05
-0.000100431
1.02477e-05
-0.000102973
1.01858e-05
-0.000105497
1.01196e-05
-0.000108002
1.00501e-05
-0.000110488
9.97908e-06
-0.000112956
9.9087e-06
-0.000115408
9.84211e-06
-0.000117846
9.78367e-06
-0.000120277
9.7394e-06
-0.000122707
9.71776e-06
-0.000125151
9.73091e-06
-0.000127626
9.79684e-06
-0.000130157
9.94322e-06
-0.00013278
1.02144e-05
-0.000135537
1.06834e-05
-0.000138466
1.14722e-05
-0.000141562
1.27774e-05
-0.000144701
1.48876e-05
-0.000147526
1.8175e-05
-0.000149263
2.30287e-05
-0.00014837
2.94746e-05
3.64433e-05
-0.000144178
-9.84999e-07
4.57516e-06
-2.93904e-06
9.34377e-06
-5.32904e-06
1.15447e-05
-7.89621e-06
1.24633e-05
-1.05301e-05
1.28106e-05
-1.31877e-05
1.29324e-05
-1.58543e-05
1.2976e-05
-1.85251e-05
1.29964e-05
-2.11988e-05
1.30115e-05
-2.38752e-05
1.30265e-05
-2.65542e-05
1.30423e-05
-2.92359e-05
1.30593e-05
-3.19202e-05
1.30771e-05
-3.46072e-05
1.30957e-05
-3.7297e-05
1.31148e-05
-3.99893e-05
1.31342e-05
-4.26843e-05
1.31535e-05
-4.53816e-05
1.31725e-05
-4.80811e-05
1.31909e-05
-5.07825e-05
1.32084e-05
-5.34855e-05
1.32246e-05
-5.61897e-05
1.32392e-05
-5.88946e-05
1.32517e-05
-6.15996e-05
1.32618e-05
-6.43042e-05
1.32691e-05
-6.70076e-05
1.3273e-05
-6.9709e-05
1.32733e-05
-7.24074e-05
1.32693e-05
-7.5102e-05
1.32607e-05
-7.77916e-05
1.32469e-05
-8.0475e-05
1.32276e-05
-8.3151e-05
1.32023e-05
-8.58183e-05
1.31706e-05
-8.84754e-05
1.31321e-05
-9.11208e-05
1.30865e-05
-9.37531e-05
1.30336e-05
-9.63708e-05
1.29734e-05
-9.89723e-05
1.2906e-05
-0.000101556
1.28315e-05
-0.000104121
1.27506e-05
-0.000106666
1.26642e-05
-0.000109189
1.25737e-05
-0.000111691
1.24812e-05
-0.000114172
1.23893e-05
-0.000116632
1.2302e-05
-0.000119073
1.22248e-05
-0.000121499
1.2165e-05
-0.000123914
1.2133e-05
-0.000126326
1.21434e-05
-0.000128746
1.22168e-05
-0.000131186
1.23835e-05
-0.00013366
1.26883e-05
-0.000136176
1.31986e-05
-0.000138717
1.40138e-05
-0.000141214
1.52743e-05
-0.000143487
1.71604e-05
-0.000145179
1.9867e-05
-0.00014567
2.35199e-05
-0.000144139
2.79437e-05
3.25001e-05
-0.000140196
-9.85206e-07
5.56037e-06
-2.94709e-06
1.13057e-05
-5.34743e-06
1.3945e-05
-7.92567e-06
1.50416e-05
-1.05703e-05
1.54552e-05
-1.32382e-05
1.56003e-05
-1.59147e-05
1.56525e-05
-1.85952e-05
1.56769e-05
-2.12786e-05
1.5695e-05
-2.39648e-05
1.57126e-05
-2.66536e-05
1.57312e-05
-2.93452e-05
1.57509e-05
-3.20396e-05
1.57715e-05
-3.47368e-05
1.5793e-05
-3.74369e-05
1.58149e-05
-4.01397e-05
1.5837e-05
-4.28453e-05
1.58591e-05
-4.55534e-05
1.58806e-05
-4.82638e-05
1.59014e-05
-5.09764e-05
1.5921e-05
-5.36908e-05
1.5939e-05
-5.64065e-05
1.59549e-05
-5.91232e-05
1.59684e-05
-6.18403e-05
1.59789e-05
-6.45571e-05
1.59859e-05
-6.72729e-05
1.59889e-05
-6.9987e-05
1.59873e-05
-7.26984e-05
1.59807e-05
-7.54061e-05
1.59684e-05
-7.81091e-05
1.59499e-05
-8.08061e-05
1.59246e-05
-8.34958e-05
1.5892e-05
-8.61768e-05
1.58516e-05
-8.88477e-05
1.5803e-05
-9.15069e-05
1.57457e-05
-9.41528e-05
1.56795e-05
-9.67836e-05
1.56043e-05
-9.93977e-05
1.55201e-05
-0.000101993
1.54271e-05
-0.000104569
1.53261e-05
-0.000107122
1.52179e-05
-0.000109653
1.51041e-05
-0.000112159
1.49869e-05
-0.000114639
1.48695e-05
-0.000117093
1.4756e-05
-0.000119521
1.46525e-05
-0.000121922
1.45668e-05
-0.000124299
1.45101e-05
-0.000126653
1.44972e-05
-0.000128985
1.45488e-05
-0.000131295
1.46934e-05
-0.000133577
1.49706e-05
-0.000135814
1.54348e-05
-0.000137958
1.61585e-05
-0.000139917
1.72325e-05
-0.000141513
1.87565e-05
-0.000142459
2.08129e-05
-0.000142339
2.34002e-05
-0.000140717
2.63217e-05
2.91613e-05
-0.000137378
-9.83177e-07
6.54355e-06
-2.9455e-06
1.3268e-05
-5.34747e-06
1.6347e-05
-7.92808e-06
1.76222e-05
-1.05751e-05
1.81023e-05
-1.32453e-05
1.82705e-05
-1.59238e-05
1.8331e-05
-1.86064e-05
1.83595e-05
-2.12919e-05
1.83805e-05
-2.39802e-05
1.84009e-05
-2.66713e-05
1.84223e-05
-2.93653e-05
1.84449e-05
-3.20624e-05
1.84686e-05
-3.47625e-05
1.84931e-05
-3.74658e-05
1.85181e-05
-4.0172e-05
1.85433e-05
-4.28812e-05
1.85683e-05
-4.55934e-05
1.85927e-05
-4.83082e-05
1.86162e-05
-5.10254e-05
1.86383e-05
-5.37449e-05
1.86584e-05
-5.64661e-05
1.86761e-05
-5.91886e-05
1.86909e-05
-6.1912e-05
1.87022e-05
-6.46356e-05
1.87094e-05
-6.73586e-05
1.87119e-05
-7.00804e-05
1.87091e-05
-7.28e-05
1.87003e-05
-7.55163e-05
1.86848e-05
-7.82284e-05
1.86619e-05
-8.09349e-05
1.86311e-05
-8.36345e-05
1.85916e-05
-8.63258e-05
1.85429e-05
-8.90073e-05
1.84844e-05
-9.16772e-05
1.84156e-05
-9.43338e-05
1.83361e-05
-9.69752e-05
1.82457e-05
-9.95994e-05
1.81443e-05
-0.000102204
1.80322e-05
-0.000104788
1.79098e-05
-0.000107349
1.77782e-05
-0.000109883
1.76388e-05
-0.00011239
1.74937e-05
-0.000114867
1.73462e-05
-0.000117311
1.72005e-05
-0.000119721
1.70623e-05
-0.000122094
1.69396e-05
-0.000124427
1.68428e-05
-0.000126715
1.67857e-05
-0.000128953
1.67869e-05
-0.00013113
1.68706e-05
-0.000133228
1.70684e-05
-0.000135214
1.74202e-05
-0.000137029
1.79743e-05
-0.00013858
1.87832e-05
-0.000139717
1.98939e-05
-0.00014023
2.13252e-05
-0.000139856
2.30262e-05
-0.000138363
2.48288e-05
2.64454e-05
-0.000135647
-9.8069e-07
7.52424e-06
-2.94077e-06
1.52281e-05
-5.3411e-06
1.87473e-05
-7.92072e-06
2.02018e-05
-1.0567e-05
2.07486e-05
-1.32365e-05
2.094e-05
-1.59143e-05
2.10088e-05
-1.85962e-05
2.10414e-05
-2.12811e-05
2.10654e-05
-2.3969e-05
2.10887e-05
-2.66598e-05
2.11132e-05
-2.93538e-05
2.11389e-05
-3.20511e-05
2.11659e-05
-3.47517e-05
2.11937e-05
-3.74557e-05
2.12221e-05
-4.01632e-05
2.12507e-05
-4.28739e-05
2.12791e-05
-4.5588e-05
2.13068e-05
-4.83051e-05
2.13334e-05
-5.10252e-05
2.13583e-05
-5.37479e-05
2.13811e-05
-5.64729e-05
2.14012e-05
-5.91998e-05
2.14178e-05
-6.19281e-05
2.14305e-05
-6.46572e-05
2.14385e-05
-6.73863e-05
2.14411e-05
-7.01148e-05
2.14376e-05
-7.28418e-05
2.14272e-05
-7.55661e-05
2.14091e-05
-7.82868e-05
2.13826e-05
-8.10025e-05
2.13468e-05
-8.3712e-05
2.13011e-05
-8.64136e-05
2.12446e-05
-8.91059e-05
2.11766e-05
-9.17869e-05
2.10966e-05
-9.44547e-05
2.1004e-05
-9.71074e-05
2.08984e-05
-9.97427e-05
2.07796e-05
-0.000102358
2.06476e-05
-0.000104951
2.05029e-05
-0.000107519
2.03463e-05
-0.000110059
2.01789e-05
-0.000112568
2.00028e-05
-0.000115043
1.98208e-05
-0.000117479
1.96367e-05
-0.000119873
1.94559e-05
-0.000122219
1.92854e-05
-0.00012451
1.91342e-05
-0.000126739
1.90143e-05
-0.000128893
1.89408e-05
-0.000130954
1.89326e-05
-0.000132899
1.90128e-05
-0.000134687
1.92082e-05
-0.00013626
1.95478e-05
-0.000137535
2.00576e-05
-0.000138393
2.07522e-05
-0.000138687
2.16189e-05
-0.000138255
2.25943e-05
-0.000136971
2.35449e-05
2.42698e-05
-0.000134795
-9.78109e-07
8.50235e-06
-2.93487e-06
1.71848e-05
-5.33226e-06
2.11447e-05
-7.90954e-06
2.27791e-05
-1.05538e-05
2.33928e-05
-1.32214e-05
2.36075e-05
-1.58975e-05
2.36849e-05
-1.85777e-05
2.37216e-05
-2.1261e-05
2.37488e-05
-2.39475e-05
2.37752e-05
-2.66372e-05
2.38029e-05
-2.93303e-05
2.38321e-05
-3.2027e-05
2.38626e-05
-3.47274e-05
2.38941e-05
-3.74315e-05
2.39262e-05
-4.01394e-05
2.39586e-05
-4.28511e-05
2.39908e-05
-4.55665e-05
2.40222e-05
-4.82855e-05
2.40524e-05
-5.1008e-05
2.40808e-05
-5.37337e-05
2.41068e-05
-5.64623e-05
2.41298e-05
-5.91935e-05
2.4149e-05
-6.19267e-05
2.41637e-05
-6.46614e-05
2.41732e-05
-6.73969e-05
2.41766e-05
-7.01325e-05
2.41732e-05
-7.28672e-05
2.4162e-05
-7.56002e-05
2.41421e-05
-7.83303e-05
2.41127e-05
-8.10562e-05
2.40727e-05
-8.37765e-05
2.40214e-05
-8.64897e-05
2.39578e-05
-8.9194e-05
2.3881e-05
-9.18877e-05
2.37902e-05
-9.45686e-05
2.36848e-05
-9.72344e-05
2.35642e-05
-9.98827e-05
2.34279e-05
-0.000102511
2.32757e-05
-0.000105116
2.31079e-05
-0.000107694
2.29248e-05
-0.000110243
2.27274e-05
-0.000112757
2.25173e-05
-0.000115233
2.22967e-05
-0.000117665
2.2069e-05
-0.000120048
2.18384e-05
-0.000122373
2.16106e-05
-0.000124632
2.13932e-05
-0.000126813
2.11953e-05
-0.000128901
2.10283e-05
-0.000130874
2.09058e-05
-0.000132704
2.08432e-05
-0.000134353
2.08565e-05
-0.000135765
2.09604e-05
-0.000136872
2.1164e-05
-0.000137583
2.14635e-05
-0.000137797
2.18329e-05
-0.000137414
2.22111e-05
-0.000136364
2.24953e-05
2.25446e-05
-0.000134639
-9.75409e-07
9.47775e-06
-2.9283e-06
1.91377e-05
-5.32207e-06
2.35384e-05
-7.89629e-06
2.53533e-05
-1.05379e-05
2.60344e-05
-1.3203e-05
2.62727e-05
-1.58767e-05
2.63586e-05
-1.85547e-05
2.63996e-05
-2.12361e-05
2.64301e-05
-2.39208e-05
2.64599e-05
-2.66089e-05
2.6491e-05
-2.93008e-05
2.65239e-05
-3.19966e-05
2.65583e-05
-3.46964e-05
2.65939e-05
-3.74003e-05
2.66302e-05
-4.01085e-05
2.66668e-05
-4.2821e-05
2.67032e-05
-4.55377e-05
2.67389e-05
-4.82587e-05
2.67733e-05
-5.09836e-05
2.68058e-05
-5.37125e-05
2.68357e-05
-5.64449e-05
2.68622e-05
-5.91806e-05
2.68847e-05
-6.19191e-05
2.69022e-05
-6.46599e-05
2.6914e-05
-6.74024e-05
2.69191e-05
-7.01458e-05
2.69166e-05
-7.28893e-05
2.69055e-05
-7.56318e-05
2.68847e-05
-7.83724e-05
2.68532e-05
-8.11098e-05
2.68101e-05
-8.38424e-05
2.6754e-05
-8.65687e-05
2.66841e-05
-8.9287e-05
2.65993e-05
-9.19953e-05
2.64985e-05
-9.46914e-05
2.63809e-05
-9.73728e-05
2.62456e-05
-0.000100037
2.60919e-05
-0.00010268
2.59194e-05
-0.0001053
2.57278e-05
-0.000107893
2.55173e-05
-0.000110454
2.52883e-05
-0.000112978
2.50418e-05
-0.000115461
2.47794e-05
-0.000117896
2.45035e-05
-0.000120274
2.42172e-05
-0.000122589
2.39249e-05
-0.000124827
2.36319e-05
-0.000126977
2.33447e-05
-0.000129019
2.30711e-05
-0.000130933
2.28197e-05
-0.00013269
2.25995e-05
-0.000134252
2.24183e-05
-0.000135572
2.22811e-05
-0.000136594
2.21861e-05
-0.000137251
2.21207e-05
-0.000137473
2.20545e-05
-0.000137197
2.19345e-05
-0.000136383
2.16819e-05
2.11975e-05
-0.000135036
-9.72507e-07
1.04503e-05
-2.92105e-06
2.10863e-05
-5.31072e-06
2.59281e-05
-7.88137e-06
2.7924e-05
-1.05198e-05
2.86728e-05
-1.31819e-05
2.89348e-05
-1.58529e-05
2.90296e-05
-1.85284e-05
2.90751e-05
-2.12075e-05
2.91092e-05
-2.389e-05
2.91424e-05
-2.65764e-05
2.91774e-05
-2.92668e-05
2.92143e-05
-3.19614e-05
2.9253e-05
-3.46605e-05
2.9293e-05
-3.73642e-05
2.93339e-05
-4.00726e-05
2.93752e-05
-4.27858e-05
2.94165e-05
-4.55039e-05
2.9457e-05
-4.82268e-05
2.94962e-05
-5.09544e-05
2.95334e-05
-5.36866e-05
2.95679e-05
-5.64232e-05
2.95988e-05
-5.91638e-05
2.96253e-05
-6.19081e-05
2.96465e-05
-6.46556e-05
2.96615e-05
-6.74057e-05
2.96692e-05
-7.01577e-05
2.96686e-05
-7.29109e-05
2.96586e-05
-7.56642e-05
2.9638e-05
-7.84165e-05
2.96056e-05
-8.11666e-05
2.95602e-05
-8.39132e-05
2.95006e-05
-8.66544e-05
2.94254e-05
-8.93886e-05
2.93335e-05
-9.21137e-05
2.92236e-05
-9.48274e-05
2.90946e-05
-9.7527e-05
2.89452e-05
-0.00010021
2.87747e-05
-0.000102872
2.8582e-05
-0.000105511
2.83666e-05
-0.000108122
2.81281e-05
-0.0001107
2.78664e-05
-0.00011324
2.75818e-05
-0.000115736
2.72752e-05
-0.00011818
2.69478e-05
-0.000120565
2.66017e-05
-0.000122879
2.62394e-05
-0.000125112
2.58643e-05
-0.000127247
2.54804e-05
-0.000129268
2.50919e-05
-0.000131152
2.47035e-05
-0.000132872
2.43189e-05
-0.000134393
2.39401e-05
-0.000135678
2.35654e-05
-0.000136679
2.31871e-05
-0.000137346
2.27884e-05
-0.000137632
2.23398e-05
-0.000137493
2.17964e-05
-0.00013691
2.10986e-05
2.01756e-05
-0.000135888
-9.69336e-07
1.14196e-05
-2.91308e-06
2.303e-05
-5.29817e-06
2.83132e-05
-7.86481e-06
3.04906e-05
-1.04996e-05
3.13076e-05
-1.31584e-05
3.15937e-05
-1.58263e-05
3.16975e-05
-1.84989e-05
3.17477e-05
-2.11752e-05
3.17855e-05
-2.38554e-05
3.18226e-05
-2.65397e-05
3.18617e-05
-2.92283e-05
3.1903e-05
-3.19216e-05
3.19463e-05
-3.46198e-05
3.19912e-05
-3.73231e-05
3.20372e-05
-4.00317e-05
3.20838e-05
-4.27456e-05
3.21304e-05
-4.5465e-05
3.21764e-05
-4.819e-05
3.22211e-05
-5.09204e-05
3.22638e-05
-5.36561e-05
3.23036e-05
-5.63971e-05
3.23398e-05
-5.9143e-05
3.23712e-05
-6.18936e-05
3.23971e-05
-6.46484e-05
3.24163e-05
-6.74068e-05
3.24277e-05
-7.01683e-05
3.24301e-05
-7.29321e-05
3.24223e-05
-7.56971e-05
3.24031e-05
-7.84625e-05
3.23709e-05
-8.12269e-05
3.23246e-05
-8.39889e-05
3.22626e-05
-8.67469e-05
3.21834e-05
-8.94991e-05
3.20857e-05
-9.22433e-05
3.19678e-05
-9.49772e-05
3.18284e-05
-9.7698e-05
3.16661e-05
-0.000100403
3.14794e-05
-0.000103088
3.12672e-05
-0.00010575
3.10283e-05
-0.000108383
3.07619e-05
-0.000110984
3.04671e-05
-0.000113546
3.01437e-05
-0.000116062
2.97915e-05
-0.000118525
2.94107e-05
-0.000120926
2.90021e-05
-0.000123253
2.85666e-05
-0.000125494
2.81056e-05
-0.000127635
2.76207e-05
-0.000129656
2.71135e-05
-0.000131537
2.65848e-05
-0.000133253
2.60347e-05
-0.000134774
2.5461e-05
-0.000136066
2.48578e-05
-0.000137094
2.42143e-05
-0.000137818
2.35124e-05
-0.000138203
2.27251e-05
-0.000138222
2.18156e-05
-0.000137862
2.07381e-05
1.94417e-05
-0.000137128
-9.65854e-07
1.23855e-05
-2.90431e-06
2.49685e-05
-5.28433e-06
3.06932e-05
-7.84648e-06
3.30528e-05
-1.04772e-05
3.39383e-05
-1.31323e-05
3.42488e-05
-1.57966e-05
3.43619e-05
-1.84659e-05
3.44169e-05
-2.11393e-05
3.44588e-05
-2.38167e-05
3.45001e-05
-2.64986e-05
3.45435e-05
-2.91852e-05
3.45896e-05
-3.1877e-05
3.4638e-05
-3.4574e-05
3.46882e-05
-3.72768e-05
3.47399e-05
-3.99853e-05
3.47923e-05
-4.26999e-05
3.4845e-05
-4.54206e-05
3.48972e-05
-4.81476e-05
3.49481e-05
-5.08809e-05
3.49971e-05
-5.36204e-05
3.50431e-05
-5.6366e-05
3.50854e-05
-5.91176e-05
3.51228e-05
-6.18749e-05
3.51544e-05
-6.46375e-05
3.51789e-05
-6.74049e-05
3.51951e-05
-7.01766e-05
3.52018e-05
-7.29519e-05
3.51976e-05
-7.57298e-05
3.5181e-05
-7.85094e-05
3.51505e-05
-8.12895e-05
3.51047e-05
-8.40687e-05
3.50417e-05
-8.68453e-05
3.496e-05
-8.96175e-05
3.48579e-05
-9.23833e-05
3.47336e-05
-9.51401e-05
3.45852e-05
-9.78852e-05
3.44112e-05
-0.000100615
3.42096e-05
-0.000103327
3.3979e-05
-0.000106016
3.37175e-05
-0.000108678
3.34238e-05
-0.000111308
3.30965e-05
-0.000113898
3.27343e-05
-0.000116443
3.23362e-05
-0.000118933
3.19014e-05
-0.000121361
3.14293e-05
-0.000123713
3.09193e-05
-0.000125979
3.0371e-05
-0.000128142
2.97839e-05
-0.000130186
2.91571e-05
-0.00013209
2.84888e-05
-0.000133831
2.77761e-05
-0.000135384
2.70139e-05
-0.00013672
2.61939e-05
-0.00013781
2.53037e-05
-0.000138623
2.43256e-05
-0.000139133
2.32357e-05
-0.000139321
2.20037e-05
-0.000139178
2.05943e-05
1.89703e-05
-0.000138706
-9.62028e-07
1.33475e-05
-2.89466e-06
2.69011e-05
-5.26909e-06
3.30677e-05
-7.82626e-06
3.56099e-05
-1.04525e-05
3.65645e-05
-1.31033e-05
3.68996e-05
-1.57638e-05
3.70223e-05
-1.84293e-05
3.70825e-05
-2.10992e-05
3.71287e-05
-2.37736e-05
3.71744e-05
-2.64527e-05
3.72227e-05
-2.91371e-05
3.72739e-05
-3.18269e-05
3.73278e-05
-3.45226e-05
3.7384e-05
-3.72245e-05
3.74418e-05
-3.99329e-05
3.75007e-05
-4.2648e-05
3.75601e-05
-4.537e-05
3.76192e-05
-4.8099e-05
3.76772e-05
-5.08352e-05
3.77333e-05
-5.35786e-05
3.77865e-05
-5.6329e-05
3.78359e-05
-5.90866e-05
3.78803e-05
-6.18509e-05
3.79187e-05
-6.46218e-05
3.79498e-05
-6.73988e-05
3.79721e-05
-7.01815e-05
3.79845e-05
-7.29691e-05
3.79852e-05
-7.57609e-05
3.79728e-05
-7.8556e-05
3.79456e-05
-8.13531e-05
3.79018e-05
-8.4151e-05
3.78396e-05
-8.69481e-05
3.77571e-05
-8.97426e-05
3.76524e-05
-9.25323e-05
3.75233e-05
-9.53148e-05
3.73677e-05
-9.80873e-05
3.71837e-05
-0.000100847
3.6969e-05
-0.000103589
3.67214e-05
-0.000106311
3.64389e-05
-0.000109006
3.61193e-05
-0.00011167
3.57606e-05
-0.000114297
3.53606e-05
-0.000116878
3.49175e-05
-0.000119406
3.44294e-05
-0.000121871
3.38943e-05
-0.000124262
3.33104e-05
-0.000126567
3.26756e-05
-0.00012877
3.19874e-05
-0.000130856
3.12429e-05
-0.000132806
3.04385e-05
-0.000134598
2.95687e-05
-0.000136211
2.86267e-05
-0.00013762
2.76027e-05
-0.0001388
2.64838e-05
-0.000139727
2.52532e-05
-0.000140381
2.38899e-05
-0.000140747
2.23692e-05
-0.000140816
2.06634e-05
1.87446e-05
-0.00014059
-9.57832e-07
1.43053e-05
-2.88408e-06
2.88273e-05
-5.25236e-06
3.54359e-05
-7.80402e-06
3.81616e-05
-1.04252e-05
3.91857e-05
-1.30714e-05
3.95458e-05
-1.57274e-05
3.96783e-05
-1.83888e-05
3.9744e-05
-2.10549e-05
3.97948e-05
-2.37257e-05
3.98453e-05
-2.64017e-05
3.98987e-05
-2.90834e-05
3.99555e-05
-3.1771e-05
4.00155e-05
-3.44651e-05
4.0078e-05
-3.71659e-05
4.01426e-05
-3.98739e-05
4.02087e-05
-4.25893e-05
4.02755e-05
-4.53123e-05
4.03422e-05
-4.80433e-05
4.04082e-05
-5.07824e-05
4.04723e-05
-5.35296e-05
4.05337e-05
-5.62851e-05
4.05913e-05
-5.90487e-05
4.0644e-05
-6.18204e-05
4.06904e-05
-6.46e-05
4.07293e-05
-6.73871e-05
4.07593e-05
-7.01814e-05
4.07787e-05
-7.29822e-05
4.0786e-05
-7.57888e-05
4.07795e-05
-7.86005e-05
4.07573e-05
-8.14161e-05
4.07174e-05
-8.42343e-05
4.06579e-05
-8.70537e-05
4.05765e-05
-8.98725e-05
4.04712e-05
-9.26887e-05
4.03394e-05
-9.54997e-05
4.01788e-05
-9.83029e-05
3.99869e-05
-0.000101095
3.97612e-05
-0.000103873
3.94989e-05
-0.000106631
3.91974e-05
-0.000109366
3.8854e-05
-0.000112071
3.84658e-05
-0.00011474
3.80301e-05
-0.000117367
3.75439e-05
-0.000119942
3.70044e-05
-0.000122456
3.64084e-05
-0.000124898
3.57527e-05
-0.000127256
3.50337e-05
-0.000129517
3.42476e-05
-0.000131663
3.33896e-05
-0.000133679
3.24543e-05
-0.000135545
3.14349e-05
-0.000137242
3.0323e-05
-0.000138747
2.91081e-05
-0.000140041
2.77772e-05
-0.000141102
2.63148e-05
-0.000141915
2.47024e-05
-0.000142465
2.29194e-05
-0.000142745
2.0944e-05
1.87546e-05
-0.000142755
-9.53243e-07
1.52586e-05
-2.8725e-06
3.07466e-05
-5.23402e-06
3.77975e-05
-7.77961e-06
4.07072e-05
-1.03952e-05
4.18013e-05
-1.30362e-05
4.21868e-05
-1.56873e-05
4.23293e-05
-1.83441e-05
4.24008e-05
-2.10058e-05
4.24565e-05
-2.36727e-05
4.25121e-05
-2.63451e-05
4.25711e-05
-2.90236e-05
4.2634e-05
-3.17087e-05
4.27005e-05
-3.44007e-05
4.277e-05
-3.71001e-05
4.28421e-05
-3.98074e-05
4.29159e-05
-4.25228e-05
4.29909e-05
-4.52468e-05
4.30662e-05
-4.79796e-05
4.31409e-05
-5.07214e-05
4.32141e-05
-5.34725e-05
4.32848e-05
-5.62329e-05
4.33518e-05
-5.90028e-05
4.34139e-05
-6.17821e-05
4.34697e-05
-6.45707e-05
4.35179e-05
-6.73683e-05
4.35569e-05
-7.01747e-05
4.35851e-05
-7.29895e-05
4.36007e-05
-7.58119e-05
4.36019e-05
-7.86412e-05
4.35866e-05
-8.14765e-05
4.35527e-05
-8.43166e-05
4.3498e-05
-8.71601e-05
4.342e-05
-9.00053e-05
4.33164e-05
-9.28503e-05
4.31844e-05
-9.56927e-05
4.30212e-05
-9.85298e-05
4.28241e-05
-0.000101359
4.25899e-05
-0.000104175
4.23156e-05
-0.000106976
4.19979e-05
-0.000109755
4.16334e-05
-0.000112508
4.12187e-05
-0.000115228
4.07501e-05
-0.000117908
4.02238e-05
-0.000120539
3.9636e-05
-0.000123113
3.89824e-05
-0.000125619
3.82585e-05
-0.000128045
3.74595e-05
-0.000130378
3.65802e-05
-0.000132602
3.56143e-05
-0.000134703
3.45551e-05
-0.000136663
3.33946e-05
-0.000138463
3.21234e-05
-0.000140086
3.07306e-05
-0.000141512
2.92033e-05
-0.000142724
2.75271e-05
-0.000143708
2.56857e-05
-0.00014445
2.36616e-05
-0.000144943
2.1437e-05
1.89952e-05
-0.000145183
-9.48236e-07
1.62068e-05
-2.85985e-06
3.26582e-05
-5.21397e-06
4.01516e-05
-7.75289e-06
4.32461e-05
-1.03624e-05
4.44109e-05
-1.29976e-05
4.48221e-05
-1.56432e-05
4.49749e-05
-1.82948e-05
4.50524e-05
-2.09517e-05
4.51134e-05
-2.36141e-05
4.51745e-05
-2.62825e-05
4.52395e-05
-2.89574e-05
4.5309e-05
-3.16394e-05
4.53825e-05
-3.43289e-05
4.54596e-05
-3.70266e-05
4.55397e-05
-3.97327e-05
4.56221e-05
-4.24479e-05
4.57061e-05
-4.51725e-05
4.57908e-05
-4.79068e-05
4.58753e-05
-5.06512e-05
4.59586e-05
-5.3406e-05
4.60396e-05
-5.61714e-05
4.61172e-05
-5.89475e-05
4.619e-05
-6.17345e-05
4.62567e-05
-6.45323e-05
4.63157e-05
-6.73409e-05
4.63655e-05
-7.01599e-05
4.64042e-05
-7.29891e-05
4.643e-05
-7.5828e-05
4.64408e-05
-7.8676e-05
4.64346e-05
-8.15322e-05
4.64089e-05
-8.43956e-05
4.63613e-05
-8.72648e-05
4.62893e-05
-9.01385e-05
4.619e-05
-9.30146e-05
4.60605e-05
-9.58911e-05
4.58977e-05
-9.87653e-05
4.56983e-05
-0.000101634
4.54588e-05
-0.000104494
4.51757e-05
-0.000107342
4.48452e-05
-0.000110171
4.44632e-05
-0.000112978
4.40255e-05
-0.000115756
4.35278e-05
-0.000118498
4.29655e-05
-0.000121195
4.23335e-05
-0.00012384
4.16268e-05
-0.000126421
4.08397e-05
-0.000128927
3.99661e-05
-0.000131347
3.89996e-05
-0.000133666
3.79329e-05
-0.000135868
3.6758e-05
-0.00013794
3.54658e-05
-0.000139863
3.40464e-05
-0.00014162
3.24883e-05
-0.000143196
3.07791e-05
-0.000144574
2.89051e-05
-0.00014574
2.68516e-05
-0.000146682
2.46035e-05
-0.000147391
2.21461e-05
1.94656e-05
-0.000147861
-9.42789e-07
1.71496e-05
-2.84609e-06
3.45615e-05
-5.19212e-06
4.24976e-05
-7.72372e-06
4.57777e-05
-1.03265e-05
4.70136e-05
-1.29554e-05
4.74509e-05
-1.55949e-05
4.76145e-05
-1.82407e-05
4.76982e-05
-2.08922e-05
4.77649e-05
-2.35495e-05
4.78319e-05
-2.62133e-05
4.79033e-05
-2.88841e-05
4.79797e-05
-3.15625e-05
4.80609e-05
-3.42491e-05
4.81462e-05
-3.69445e-05
4.82351e-05
-3.96491e-05
4.83268e-05
-4.23636e-05
4.84206e-05
-4.50884e-05
4.85155e-05
-4.78239e-05
4.86108e-05
-5.05707e-05
4.87053e-05
-5.3329e-05
4.87979e-05
-5.60991e-05
4.88874e-05
-5.88815e-05
4.89723e-05
-6.16762e-05
4.90514e-05
-6.44833e-05
4.91228e-05
-6.73029e-05
4.91851e-05
-7.01349e-05
4.92362e-05
-7.29792e-05
4.92742e-05
-7.58353e-05
4.92969e-05
-7.87027e-05
4.9302e-05
-8.15808e-05
4.9287e-05
-8.44688e-05
4.92493e-05
-8.73654e-05
4.91859e-05
-9.02693e-05
4.90939e-05
-9.31788e-05
4.897e-05
-9.60919e-05
4.88108e-05
-9.90063e-05
4.86126e-05
-0.000101919
4.83715e-05
-0.000104827
4.80834e-05
-0.000107725
4.7744e-05
-0.000110611
4.73487e-05
-0.000113478
4.68925e-05
-0.000116321
4.63704e-05
-0.000119132
4.57769e-05
-0.000121905
4.51061e-05
-0.00012463
4.43519e-05
-0.000127297
4.35076e-05
-0.000129897
4.25661e-05
-0.000132418
4.15198e-05
-0.000134845
4.03603e-05
-0.000137166
3.90786e-05
-0.000139365
3.76649e-05
-0.000141427
3.61085e-05
-0.000143336
3.43976e-05
-0.000145077
3.25201e-05
-0.000146635
3.04626e-05
-0.000147995
2.82118e-05
-0.000149145
2.57541e-05
-0.000150076
2.30769e-05
2.01687e-05
-0.000150779
-9.36879e-07
1.80865e-05
-2.83114e-06
3.64558e-05
-5.16835e-06
4.48348e-05
-7.69194e-06
4.83013e-05
-1.02873e-05
4.9609e-05
-1.29092e-05
5.00728e-05
-1.5542e-05
5.02473e-05
-1.81815e-05
5.03377e-05
-2.08269e-05
5.04103e-05
-2.34786e-05
5.04835e-05
-2.61371e-05
5.05619e-05
-2.88032e-05
5.06458e-05
-3.14775e-05
5.07352e-05
-3.41605e-05
5.08293e-05
-3.68531e-05
5.09276e-05
-3.95557e-05
5.10294e-05
-4.2269e-05
5.11339e-05
-4.49936e-05
5.12401e-05
-4.77299e-05
5.13472e-05
-5.04786e-05
5.1454e-05
-5.32401e-05
5.15594e-05
-5.60148e-05
5.16621e-05
-5.88031e-05
5.17607e-05
-6.16054e-05
5.18536e-05
-6.44218e-05
5.19393e-05
-6.72526e-05
5.20159e-05
-7.00978e-05
5.20814e-05
-7.29574e-05
5.21338e-05
-7.58312e-05
5.21707e-05
-7.87188e-05
5.21896e-05
-8.16198e-05
5.2188e-05
-8.45334e-05
5.21629e-05
-8.74587e-05
5.21113e-05
-9.03946e-05
5.20298e-05
-9.33396e-05
5.1915e-05
-9.62918e-05
5.1763e-05
-9.92491e-05
5.15699e-05
-0.000102209
5.13313e-05
-0.000105168
5.10426e-05
-0.000108123
5.06989e-05
-0.000111069
5.02952e-05
-0.000114003