/*--------------------------------*- C++ -*----------------------------------*\
  =========                 |
  \\      /  F ield         | OpenFOAM: The Open Source CFD Toolbox
   \\    /   O peration     | Website:  https://openfoam.org
    \\  /    A nd           | Version:  8
     \\/     M anipulation  |
\*---------------------------------------------------------------------------*/
FoamFile
{
    version     2.0;
    format      ascii;
    class       surfaceScalarField;
    location    "0.87";
    object      phi;
}
// * * * * * * * * * * * * * * * * * * * * * * * * * * * * * * * * * * * * * //

dimensions      [0 3 -1 0 0 0 0];

internalField   nonuniform List<scalar> 
760
(
1.24867e-06
1.71392e-12
1.24867e-06
3.83891e-12
1.24866e-06
3.89899e-12
1.24866e-06
3.57982e-12
1.24866e-06
2.95441e-12
1.24865e-06
2.37605e-12
1.24865e-06
1.86671e-12
1.24865e-06
1.42258e-12
1.24865e-06
1.02478e-12
1.24865e-06
6.40918e-13
1.24865e-06
2.35966e-13
1.24865e-06
-2.20428e-13
1.24865e-06
-7.55301e-13
1.24865e-06
-1.39572e-12
1.24865e-06
-2.17318e-12
1.24866e-06
-3.10494e-12
1.24866e-06
-4.1634e-12
1.24866e-06
-4.98671e-12
1.24867e-06
-4.78715e-12
-1.96623e-12
3.74602e-06
1.78905e-12
3.74602e-06
7.52959e-12
3.74602e-06
9.48774e-12
3.74601e-06
9.24112e-12
3.746e-06
8.06946e-12
3.746e-06
6.75068e-12
3.746e-06
5.49558e-12
3.74599e-06
4.33319e-12
3.74599e-06
3.22438e-12
3.74599e-06
2.11013e-12
3.74599e-06
9.30355e-13
3.74599e-06
-3.71728e-13
3.74599e-06
-1.85445e-12
3.74599e-06
-3.58407e-12
3.746e-06
-5.62031e-12
3.746e-06
-7.9576e-12
3.74601e-06
-1.04019e-11
3.74601e-06
-1.2114e-11
3.74602e-06
-1.11941e-11
-5.8632e-12
6.24347e-06
8.10928e-13
6.24346e-06
9.22591e-12
6.24346e-06
1.32469e-11
6.24346e-06
1.37518e-11
6.24345e-06
1.25984e-11
6.24345e-06
1.09131e-11
6.24344e-06
9.11963e-12
6.24344e-06
7.34517e-12
6.24344e-06
5.58473e-12
6.24344e-06
3.78267e-12
6.24343e-06
1.86713e-12
6.24343e-06
-2.38151e-13
6.24344e-06
-2.61413e-12
6.24344e-06
-5.34597e-12
6.24344e-06
-8.49308e-12
6.24344e-06
-1.19966e-11
6.24345e-06
-1.54892e-11
6.24346e-06
-1.77978e-11
6.24346e-06
-1.65507e-11
-9.72082e-12
8.74106e-06
-1.01624e-12
8.74106e-06
9.27944e-12
8.74106e-06
1.49148e-11
8.74106e-06
1.639e-11
8.74106e-06
1.56404e-11
8.74105e-06
1.39684e-11
8.74105e-06
1.19471e-11
8.74105e-06
9.80468e-12
8.74105e-06
7.59339e-12
8.74104e-06
5.28293e-12
8.74104e-06
2.80767e-12
8.74104e-06
8.85373e-14
8.74104e-06
-2.95865e-12
8.74105e-06
-6.41389e-12
8.74105e-06
-1.03138e-11
8.74105e-06
-1.45438e-11
8.74105e-06
-1.86244e-11
8.74106e-06
-2.12545e-11
8.74106e-06
-1.99655e-11
-1.26265e-11
1.12389e-05
-2.8816e-12
1.12389e-05
8.0679e-12
1.12389e-05
1.47049e-11
1.12389e-05
1.70609e-11
1.12389e-05
1.68975e-11
1.12389e-05
1.55209e-11
1.12389e-05
1.35678e-11
1.12389e-05
1.13365e-11
1.12389e-05
8.93348e-12
1.12389e-05
6.36344e-12
1.12389e-05
3.582e-12
1.12389e-05
5.2466e-13
1.12389e-05
-2.87842e-12
1.12389e-05
-6.68803e-12
1.12389e-05
-1.09143e-11
1.12389e-05
-1.54086e-11
1.12389e-05
-1.96584e-11
1.12389e-05
-2.24084e-11
1.12389e-05
-2.13441e-11
-1.4378e-11
1.3737e-05
-4.47847e-12
1.3737e-05
6.03544e-12
1.3737e-05
1.2973e-11
1.3737e-05
1.59377e-11
1.3737e-05
1.63732e-11
1.3737e-05
1.54572e-11
1.3737e-05
1.38076e-11
1.3737e-05
1.17491e-11
1.3737e-05
9.42506e-12
1.3737e-05
6.87379e-12
1.3737e-05
4.07918e-12
1.3737e-05
1.00153e-12
1.3737e-05
-2.40478e-12
1.3737e-05
-6.1761e-12
1.3737e-05
-1.03023e-11
1.3737e-05
-1.46318e-11
1.3737e-05
-1.8693e-11
1.3737e-05
-2.1404e-11
1.3737e-05
-2.07718e-11
-1.48505e-11
1.62354e-05
-5.60693e-12
1.62354e-05
3.57253e-12
1.62354e-05
1.01269e-11
1.62354e-05
1.33432e-11
1.62354e-05
1.42731e-11
1.62354e-05
1.3878e-11
1.62354e-05
1.26911e-11
1.62354e-05
1.10196e-11
1.62354e-05
9.02011e-12
1.62354e-05
6.75504e-12
1.62354e-05
4.23528e-12
1.62354e-05
1.44876e-12
1.62354e-05
-1.62287e-12
1.62354e-05
-4.99259e-12
1.62354e-05
-8.64026e-12
1.62354e-05
-1.24387e-11
1.62354e-05
-1.60125e-11
1.62354e-05
-1.85372e-11
1.62354e-05
-1.84585e-11
-1.40541e-11
1.87342e-05
-6.14494e-12
1.87342e-05
9.95307e-13
1.87342e-05
6.56617e-12
1.87342e-05
9.66287e-12
1.87342e-05
1.09199e-11
1.87342e-05
1.10298e-11
1.87342e-05
1.03931e-11
1.87342e-05
9.26289e-12
1.87342e-05
7.7844e-12
1.87342e-05
6.03039e-12
1.87342e-05
4.03211e-12
1.87342e-05
1.80244e-12
1.87342e-05
-6.51335e-13
1.87342e-05
-3.32234e-12
1.87342e-05
-6.18888e-12
1.87342e-05
-9.16625e-12
1.87342e-05
-1.20091e-11
1.87342e-05
-1.41995e-11
1.87342e-05
-1.46999e-11
-1.20971e-11
2.12333e-05
-6.05368e-12
2.12333e-05
-1.4595e-12
2.12334e-05
2.64997e-12
2.12334e-05
5.293e-12
2.12334e-05
6.69443e-12
2.12334e-05
7.24911e-12
2.12334e-05
7.19334e-12
2.12334e-05
6.69799e-12
2.12334e-05
5.87568e-12
2.12334e-05
4.79488e-12
2.12334e-05
3.49819e-12
2.12334e-05
2.01812e-12
2.12334e-05
3.84059e-13
2.12334e-05
-1.37995e-12
2.12334e-05
-3.25488e-12
2.12334e-05
-5.2055e-12
2.12334e-05
-7.13045e-12
2.12334e-05
-8.83953e-12
2.12333e-05
-9.85731e-12
-9.16793e-12
2.37329e-05
-5.37707e-12
2.37329e-05
-3.63199e-12
2.37329e-05
-1.31623e-12
2.37329e-05
6.14294e-13
2.37329e-05
1.99916e-12
2.37329e-05
2.92244e-12
2.3733e-05
3.43855e-12
2.3733e-05
3.61686e-12
2.3733e-05
3.52081e-12
2.3733e-05
3.20209e-12
2.3733e-05
2.70603e-12
2.3733e-05
2.07926e-12
2.3733e-05
1.37046e-12
2.3733e-05
6.20055e-13
2.3733e-05
-1.53804e-13
2.37329e-05
-9.62558e-13
2.37329e-05
-1.84539e-12
2.37329e-05
-2.93773e-12
2.37329e-05
-4.34249e-12
-5.52277e-12
2.62329e-05
-4.23255e-12
2.62329e-05
-5.43125e-12
2.62329e-05
-5.08071e-12
2.62329e-05
-4.01881e-12
2.62329e-05
-2.76247e-12
2.6233e-05
-1.54007e-12
2.6233e-05
-4.86137e-13
2.6233e-05
3.56679e-13
2.6233e-05
9.92308e-13
2.6233e-05
1.44728e-12
2.6233e-05
1.76359e-12
2.6233e-05
1.99837e-12
2.6233e-05
2.21833e-12
2.6233e-05
2.48233e-12
2.6233e-05
2.81383e-12
2.6233e-05
3.16663e-12
2.6233e-05
3.37871e-12
2.62329e-05
3.01264e-12
2.62329e-05
1.39637e-12
-1.47516e-12
2.87334e-05
-2.79579e-12
2.87334e-05
-6.82253e-12
2.87334e-05
-8.43521e-12
2.87334e-05
-8.27756e-12
2.87334e-05
-7.19524e-12
2.87334e-05
-5.72256e-12
2.87334e-05
-4.1806e-12
2.87334e-05
-2.72557e-12
2.87334e-05
-1.41565e-12
2.87334e-05
-2.52153e-13
2.87334e-05
8.01566e-13
2.87334e-05
1.81207e-12
2.87334e-05
2.86465e-12
2.87334e-05
4.04021e-12
2.87334e-05
5.37697e-12
2.87334e-05
6.81236e-12
2.87334e-05
8.0915e-12
2.87334e-05
8.51872e-12
2.87334e-05
6.88819e-12
2.61655e-12
3.12342e-05
-1.28076e-12
3.12342e-05
-7.80872e-12
3.12342e-05
-1.11978e-11
3.12342e-05
-1.18514e-11
3.12342e-05
-1.0916e-11
3.12342e-05
-9.21779e-12
3.12342e-05
-7.25194e-12
3.12342e-05
-5.27909e-12
3.12342e-05
-3.41317e-12
3.12342e-05
-1.67911e-12
3.12342e-05
-4.32053e-14
3.12342e-05
1.57172e-12
3.12342e-05
3.27051e-12
3.12342e-05
5.15983e-12
3.12342e-05
7.30288e-12
3.12342e-05
9.643e-12
3.12342e-05
1.18723e-11
3.12342e-05
1.31002e-11
3.12342e-05
1.16534e-11
6.36498e-12
3.37354e-05
8.6082e-14
3.37354e-05
-8.40551e-12
3.37354e-05
-1.31918e-11
3.37354e-05
-1.44379e-11
3.37354e-05
-1.35575e-11
3.37354e-05
-1.16445e-11
3.37354e-05
-9.34117e-12
3.37354e-05
-6.99049e-12
3.37354e-05
-4.74547e-12
3.37354e-05
-2.64359e-12
3.37354e-05
-6.48115e-13
3.37354e-05
1.33033e-12
3.37354e-05
3.41605e-12
3.37354e-05
5.74254e-12
3.37354e-05
8.40602e-12
3.37354e-05
1.13785e-11
3.37354e-05
1.43462e-11
3.37354e-05
1.63057e-11
3.37354e-05
1.52213e-11
9.37337e-12
3.6237e-05
1.098e-12
3.6237e-05
-8.60717e-12
3.6237e-05
-1.42229e-11
3.6237e-05
-1.57356e-11
3.6237e-05
-1.47815e-11
3.6237e-05
-1.26765e-11
3.6237e-05
-1.0162e-11
3.6237e-05
-7.62537e-12
3.6237e-05
-5.23188e-12
3.6237e-05
-3.01549e-12
3.6237e-05
-9.29504e-13
3.6237e-05
1.12761e-12
3.6237e-05
3.29537e-12
3.6237e-05
5.72979e-12
3.6237e-05
8.5622e-12
3.6237e-05
1.18121e-11
3.6237e-05
1.52098e-11
3.6237e-05
1.77386e-11
3.6237e-05
1.71534e-11
1.1261e-11
3.87389e-05
1.60661e-12
3.87389e-05
-8.34272e-12
3.87389e-05
-1.40576e-11
3.87389e-05
-1.54512e-11
3.87389e-05
-1.43133e-11
3.87389e-05
-1.20954e-11
3.87389e-05
-9.56018e-12
3.87389e-05
-7.08523e-12
3.87389e-05
-4.81519e-12
3.87389e-05
-2.76365e-12
3.87389e-05
-8.69982e-13
3.87389e-05
9.74406e-13
3.87389e-05
2.91359e-12
3.87389e-05
5.11373e-12
3.87389e-05
7.73323e-12
3.87389e-05
1.08477e-11
3.87389e-05
1.42768e-11
3.87389e-05
1.71049e-11
3.87389e-05
1.70835e-11
1.16999e-11
4.12411e-05
1.56476e-12
4.12411e-05
-7.43268e-12
4.12411e-05
-1.24179e-11
4.12411e-05
-1.33385e-11
4.12411e-05
-1.20161e-11
4.12411e-05
-9.87834e-12
4.12411e-05
-7.59793e-12
4.12411e-05
-5.47986e-12
4.12411e-05
-3.61827e-12
4.12411e-05
-1.99708e-12
4.12411e-05
-5.45787e-13
4.12411e-05
8.3863e-13
4.12411e-05
2.28727e-12
4.12411e-05
3.95536e-12
4.12411e-05
6.00622e-12
4.12411e-05
8.55985e-12
4.12411e-05
1.15544e-11
4.12411e-05
1.4294e-11
4.12411e-05
1.47897e-11
1.04722e-11
4.37435e-05
1.09883e-12
4.37435e-05
-5.55003e-12
4.37435e-05
-9.00409e-12
4.37435e-05
-9.2983e-12
4.37435e-05
-8.02157e-12
4.37435e-05
-6.32393e-12
4.37435e-05
-4.65727e-12
4.37435e-05
-3.20274e-12
4.37435e-05
-1.99559e-12
4.37435e-05
-9.99481e-13
4.37435e-05
-1.49417e-13
4.37435e-05
6.34788e-13
4.37435e-05
1.45024e-12
4.37435e-05
2.41301e-12
4.37435e-05
3.65184e-12
4.37435e-05
5.28864e-12
4.37435e-05
7.36936e-12
4.37435e-05
9.50498e-12
4.37435e-05
1.02865e-11
7.50421e-12
4.6246e-05
3.92498e-13
4.6246e-05
-2.60698e-12
4.6246e-05
-3.94368e-12
4.6246e-05
-3.84687e-12
4.6246e-05
-3.11065e-12
4.6246e-05
-2.30733e-12
4.6246e-05
-1.58655e-12
4.6246e-05
-1.00206e-12
4.6246e-05
-5.54602e-13
4.6246e-05
-2.17585e-13
4.6246e-05
4.53055e-14
4.6246e-05
2.75866e-13
4.6246e-05
5.21023e-13
4.6246e-05
8.31738e-13
4.6246e-05
1.25619e-12
4.6246e-05
1.84823e-12
4.6246e-05
2.68461e-12
4.6246e-05
3.6889e-12
4.6246e-05
4.32056e-12
3.31136e-12
4.87487e-05
4.87487e-05
4.87487e-05
4.87487e-05
4.87487e-05
4.87487e-05
4.87487e-05
4.87487e-05
4.87487e-05
4.87487e-05
4.87487e-05
4.87487e-05
4.87487e-05
4.87487e-05
4.87487e-05
4.87487e-05
4.87487e-05
4.87487e-05
4.87487e-05
)
;

boundaryField
{
    movingWall
    {
        type            calculated;
        value           uniform 0;
    }
    fixedWalls
    {
        type            calculated;
        value           uniform 0;
    }
    left
    {
        type            cyclic;
        value           nonuniform List<scalar> 
20
(
-3.87389e-05
-3.6237e-05
-3.37354e-05
-3.12342e-05
-2.87334e-05
-2.62329e-05
-2.37329e-05
-2.12333e-05
-1.87342e-05
-1.62354e-05
-1.3737e-05
-1.12389e-05
-8.74106e-06
-6.24346e-06
-3.74602e-06
-1.24867e-06
-4.12411e-05
-4.37435e-05
-4.6246e-05
-4.87487e-05
)
;
    }
    right
    {
        type            cyclic;
        value           nonuniform List<scalar> 
20
(
3.87389e-05
3.6237e-05
3.37354e-05
3.12342e-05
2.87334e-05
2.62329e-05
2.37329e-05
2.12333e-05
1.87342e-05
1.62354e-05
1.3737e-05
1.12389e-05
8.74106e-06
6.24346e-06
3.74602e-06
1.24867e-06
4.12411e-05
4.37435e-05
4.6246e-05
4.87487e-05
)
;
    }
    frontAndBack
    {
        type            empty;
        value           nonuniform List<scalar> 0();
    }
}


// ************************************************************************* //
