0 	-1.49765e-08
1.57135 	1.18667e-08
3.1427 	3.54607e-06
4.71405 	2.13527e-05
6.28539 	7.29623e-05
7.85674 	0.00018934
9.42809 	0.00040841
10.9994 	0.000773091
12.5708 	0.00125943
14.1421 	0.00740547
