0 	-5.95439e-09
1.57135 	-2.5257e-06
3.1427 	-2.11088e-05
4.71405 	-8.55475e-05
6.28539 	-0.000265052
7.85674 	-0.000767547
9.42809 	-0.00230825
10.9994 	-0.00512795
12.5708 	-0.00426238
14.1421 	0.250558
