0 	1.80925e-07
1.57135 	-8.72852e-07
3.1427 	-9.02652e-06
4.71405 	-3.51112e-05
6.28539 	-0.000102604
7.85674 	-0.000281969
9.42809 	-0.000874748
10.9994 	-0.00352628
12.5708 	-0.00775642
14.1421 	0.249568
