/*--------------------------------*- C++ -*----------------------------------*\
  =========                 |
  \\      /  F ield         | OpenFOAM: The Open Source CFD Toolbox
   \\    /   O peration     | Website:  https://openfoam.org
    \\  /    A nd           | Version:  8
     \\/     M anipulation  |
\*---------------------------------------------------------------------------*/
FoamFile
{
    version     2.0;
    format      ascii;
    class       volScalarField;
    location    "56.5";
    object      p;
}
// * * * * * * * * * * * * * * * * * * * * * * * * * * * * * * * * * * * * * //

dimensions      [0 2 -2 0 0 0 0];

internalField   nonuniform List<scalar> 
464
(
-2.03801e-08
1.13882e-06
5.59489e-06
1.21719e-05
2.16531e-05
3.39126e-05
4.95109e-05
6.7478e-05
9.06111e-05
0.000113046
0.000145683
0.000167483
-1.33842e-06
-2.20285e-07
4.28561e-06
1.10569e-05
2.09695e-05
3.3867e-05
5.02554e-05
6.92807e-05
9.3568e-05
0.000118021
0.000152671
0.000179846
-6.52271e-06
-5.67967e-06
-1.738e-06
3.87947e-06
1.21061e-05
2.30166e-05
3.7071e-05
5.40274e-05
7.54142e-05
9.82816e-05
0.000127993
0.000155082
-1.38257e-05
-1.30238e-05
-8.66306e-06
-1.92192e-06
8.0383e-06
2.11023e-05
3.76366e-05
5.75548e-05
8.20977e-05
0.000109299
0.000143048
0.000177168
-2.42249e-05
-2.43393e-05
-2.18724e-05
-1.85076e-05
-1.24118e-05
-3.66481e-06
8.44692e-06
2.42012e-05
4.42394e-05
6.81012e-05
9.72197e-05
0.00012805
-3.48766e-05
-3.41811e-05
-3.01018e-05
-2.41147e-05
-1.52412e-05
-3.36425e-06
1.21308e-05
3.17768e-05
5.62625e-05
8.59205e-05
0.000121716
0.000164786
-5.82801e-05
-6.00604e-05
-5.86966e-05
-5.86499e-05
-5.50026e-05
-4.96875e-05
-4.0402e-05
-2.69322e-05
-8.34454e-06
1.63844e-05
4.66179e-05
8.63732e-05
-5.62758e-05
-5.67362e-05
-5.51511e-05
-5.20374e-05
-4.70009e-05
-3.88672e-05
-2.73624e-05
-1.07065e-05
1.12871e-05
4.15528e-05
7.64836e-05
0.000127489
-0.000106975
-0.000112077
-0.000111152
-0.000118401
-0.000116807
-0.000118988
-0.000114275
-0.000105733
-9.2317e-05
-6.61568e-05
-4.26496e-05
1.36658e-05
-7.65444e-05
-7.86542e-05
-8.20738e-05
-8.34644e-05
-8.68034e-05
-8.54005e-05
-8.36926e-05
-7.3159e-05
-6.21793e-05
-3.10368e-05
-7.45852e-06
5.74907e-05
-0.000163289
-0.000175599
-0.000174177
-0.000197018
-0.000197034
-0.000215418
-0.000216974
-0.000219318
-0.00021877
-0.000193287
-0.000188266
-0.000116845
-9.12883e-05
-9.53348e-05
-0.000107963
-0.000114589
-0.000134163
-0.000141147
-0.000161479
-0.000157719
-0.000174873
-0.000142501
-0.000154019
-6.98497e-05
-0.000212855
-0.000241191
-0.000237767
-0.000291667
-0.000292685
-0.000340487
-0.000351235
-0.000374441
-0.000395249
-0.000379785
-0.000410642
-0.000335148
-9.34162e-05
-0.000101227
-0.00012706
-0.000140082
-0.000184532
-0.000203096
-0.00026004
-0.000266085
-0.000331613
-0.000302195
-0.000377348
-0.000284583
-0.000221881
-0.000290818
-0.000284612
-0.0003992
-0.000400179
-0.000495225
-0.000517591
-0.000572269
-0.000621843
-0.000628363
-0.000712625
-0.000653961
-7.44617e-05
-9.68308e-05
-0.000132245
-0.000154228
-0.000226865
-0.000265979
-0.000372339
-0.000394897
-0.00052453
-0.000506189
-0.000659907
-0.000581617
-8.97493e-05
-0.000291353
-0.000296871
-0.000527424
-0.0005274
-0.000683443
-0.000718633
-0.000807672
-0.00088501
-0.000923622
-0.00104481
-0.00104568
-3.31886e-05
-0.00012494
-0.00013226
-0.000150444
-0.000235952
-0.000318496
-0.000489582
-0.000538106
-0.000740319
-0.000739056
-0.000942404
-0.000908595
0.000423145
-0.000328946
-0.000307595
-0.000737098
-0.000687732
-0.000905385
-0.000960124
-0.00107265
-0.0011695
-0.00124513
-0.00131226
-0.0014744
-0.00102919
0.000272428
0.000156323
-8.29998e-05
-0.000278836
-0.00040236
-0.000727161
-0.000774503
-0.00104415
-0.00104266
-0.0012167
-0.00123512
0.000213716
0.000236237
0.000261036
0.000279047
0.00029642
0.000309027
0.000318432
0.000322236
0.000231309
0.000255885
0.000285077
0.000305417
0.000324906
0.000339188
0.000349649
0.000353989
0.000192251
0.000222307
0.000255206
0.000284412
0.000310631
0.000332278
0.000347258
0.000354368
0.000218572
0.000254385
0.000291757
0.000325461
0.000355461
0.000381109
0.000398418
0.0004071
0.000167713
0.000210124
0.000252323
0.000299223
0.000336261
0.00037611
0.000398733
0.00041368
0.000208834
0.000258061
0.000306799
0.000361976
0.000405837
0.000454731
0.000482173
0.000501951
0.000126665
0.000190386
0.000239356
0.000321516
0.000370811
0.000451261
0.000484994
0.000521837
0.000179021
0.000254209
0.000314209
0.000411712
0.000473595
0.000574789
0.000619238
0.000671652
4.49299e-05
0.000143454
0.000193099
0.000338574
0.000401775
0.00057067
0.000625709
0.000727697
0.000100697
0.000218252
0.000281112
0.000454621
0.000537892
0.000754665
0.000835194
0.000992954
-0.000102627
3.32242e-05
6.42666e-05
0.000309429
0.00037746
0.000732247
0.000836537
0.00115296
-7.04647e-05
0.000104005
0.000130489
0.000423557
0.000508151
0.000962251
0.0011309
0.00165192
-0.000376113
-0.000196608
-0.000248853
0.000124218
0.000111113
0.000814312
0.00100501
0.00202821
-0.000378104
-0.000173059
-0.00028805
0.000140151
3.74545e-05
0.000892421
0.00105276
0.00268799
-0.000803674
-0.000607284
-0.000903686
-0.000396298
-0.000916756
0.000212466
-0.000640375
0.00191231
-0.000800678
-0.000617026
-0.00103662
-0.000621299
-0.00162719
-0.000497566
-0.00328887
0.00039979
-0.00128389
-0.00115541
-0.00180688
-0.00131045
-0.00277138
-0.00164161
-0.00438143
-0.00118233
-0.00115081
-0.00108981
-0.00154234
-0.00154448
-0.00254239
-0.00296818
-0.00430958
6.64e-05
-0.00151005
-0.00162504
-0.0023275
-0.00201485
-0.00407649
-0.00486292
-0.00566016
0.00117369
-0.00135392
-0.00136701
-0.0016805
-0.00168243
-0.00189333
-0.00062444
0.00314022
0.0173902
0.000289502
0.000289926
0.00029102
0.000292281
0.000293767
0.000294997
0.000296006
0.000296389
0.000291254
0.000291714
0.000292856
0.000294182
0.000295649
0.000296852
0.000297824
0.000298188
0.000285708
0.000286385
0.000288108
0.000289984
0.000292292
0.00029414
0.000295678
0.000296255
0.000290795
0.000291693
0.000293686
0.00029595
0.000298308
0.000300207
0.000301713
0.000302274
0.000277672
0.000279365
0.000283088
0.000286861
0.000291401
0.000294865
0.000297721
0.000298785
0.000286474
0.000288878
0.000293214
0.000297891
0.000302555
0.000306239
0.000309111
0.00031019
0.000259763
0.000265275
0.000274404
0.000282711
0.000291924
0.000298669
0.000304027
0.000306058
0.000271955
0.000280278
0.000290579
0.000300497
0.000310156
0.000317524
0.000323145
0.000325314
)
;

boundaryField
{
    movingWall
    {
        type            zeroGradient;
    }
    fixedWalls
    {
        type            zeroGradient;
    }
    frontAndBack
    {
        type            empty;
    }
}


// ************************************************************************* //
