/*--------------------------------*- C++ -*----------------------------------*\
  =========                 |
  \\      /  F ield         | OpenFOAM: The Open Source CFD Toolbox
   \\    /   O peration     | Website:  https://openfoam.org
    \\  /    A nd           | Version:  8
     \\/     M anipulation  |
\*---------------------------------------------------------------------------*/
FoamFile
{
    version     2.0;
    format      ascii;
    class       surfaceScalarField;
    location    "0.25";
    object      phi;
}
// * * * * * * * * * * * * * * * * * * * * * * * * * * * * * * * * * * * * * //

dimensions      [0 3 -1 0 0 0 0];

internalField   nonuniform List<scalar> 
760
(
1.42334e-08
-1.42578e-08
-2.22068e-08
3.64398e-08
-1.1425e-07
9.20431e-08
-2.4545e-07
1.312e-07
-3.96026e-07
1.50575e-07
-5.47264e-07
1.51238e-07
-6.83061e-07
1.35798e-07
-7.90512e-07
1.07451e-07
-8.60042e-07
6.95307e-08
-8.85472e-07
2.54294e-08
-8.64155e-07
-2.13162e-08
-7.97238e-07
-6.69166e-08
-6.89957e-07
-1.07281e-07
-5.51873e-07
-1.38084e-07
-3.96875e-07
-1.54998e-07
-2.4271e-07
-1.54165e-07
-1.09718e-07
-1.32992e-07
-1.84168e-08
-9.13016e-08
1.5685e-08
-3.41018e-08
1.56851e-08
-3.4207e-08
1.99492e-08
-1.8034e-07
1.82573e-07
-4.33909e-07
3.45612e-07
-7.64293e-07
4.61584e-07
-1.132e-06
5.18286e-07
-1.49697e-06
5.16204e-07
-1.823e-06
4.61832e-07
-2.08015e-06
3.64602e-07
-2.24586e-06
2.3524e-07
-2.30562e-06
8.51851e-08
-2.25349e-06
-7.34436e-08
-2.09267e-06
-2.27736e-07
-1.83593e-06
-3.6402e-07
-1.50578e-06
-4.68242e-07
-1.13389e-06
-5.2689e-07
-7.59393e-07
-5.28657e-07
-4.25331e-07
-4.67054e-07
-1.72666e-07
-3.43967e-07
-3.07985e-08
-1.75969e-07
-1.51131e-08
-9.22092e-08
1.12158e-07
-3.56929e-07
4.47291e-07
-7.64415e-07
7.53098e-07
-1.26825e-06
9.65419e-07
-1.81436e-06
1.0644e-06
-2.34861e-06
1.05045e-06
-2.82191e-06
9.35133e-07
-3.19335e-06
7.36044e-07
-3.43197e-06
4.73866e-07
-3.51787e-06
1.71076e-07
-3.44294e-06
-1.48365e-07
-3.21168e-06
-4.59005e-07
-2.8416e-06
-7.34099e-07
-2.36338e-06
-9.46454e-07
-1.82e-06
-1.07028e-06
-1.26427e-06
-1.08438e-06
-7.54394e-07
-9.76928e-07
-3.46913e-07
-7.51448e-07
-8.73216e-08
-4.35559e-07
-1.02434e-07
-1.45182e-07
2.5734e-07
-5.25362e-07
8.2747e-07
-1.08143e-06
1.30917e-06
-1.74719e-06
1.63118e-06
-2.45388e-06
1.77109e-06
-3.1358e-06
1.73237e-06
-3.73461e-06
1.53394e-06
-4.20215e-06
1.20358e-06
-4.50211e-06
7.73829e-07
-4.6111e-06
2.80072e-07
-4.51946e-06
-2.40011e-07
-4.23199e-06
-7.4647e-07
-3.76871e-06
-1.19738e-06
-3.16509e-06
-1.55007e-06
-2.47146e-06
-1.76392e-06
-1.75077e-06
-1.80507e-06
-1.07433e-06
-1.65337e-06
-5.15053e-07
-1.31072e-06
-1.39292e-07
-8.11319e-07
-2.41726e-07
-1.93573e-07
4.50914e-07
-6.8488e-07
1.31878e-06
-1.38538e-06
2.00967e-06
-2.20686e-06
2.45266e-06
-3.06495e-06
2.62917e-06
-3.88312e-06
2.55055e-06
-4.59573e-06
2.24655e-06
-5.14972e-06
1.75757e-06
-5.50553e-06
1.12964e-06
-5.63759e-06
4.12133e-07
-5.53485e-06
-3.42754e-07
-5.20153e-06
-1.07979e-06
-4.65813e-06
-1.74078e-06
-3.94233e-06
-2.26588e-06
-3.10922e-06
-2.59703e-06
-2.23015e-06
-2.68413e-06
-1.38942e-06
-2.4941e-06
-6.78393e-07
-2.02175e-06
-1.87737e-07
-1.30197e-06
-4.29463e-07
-2.39902e-07
6.90816e-07
-8.40221e-07
1.91909e-06
-1.68304e-06
2.85248e-06
-2.65666e-06
3.42628e-06
-3.6603e-06
3.63281e-06
-4.6071e-06
3.49735e-06
-5.42557e-06
3.06502e-06
-6.0597e-06
2.3917e-06
-6.46843e-06
1.53838e-06
-6.62512e-06
5.68817e-07
-6.51741e-06
-4.5046e-07
-6.14795e-06
-1.44925e-06
-5.53579e-06
-2.35294e-06
-4.71829e-06
-3.08337e-06
-3.75296e-06
-3.56236e-06
-2.71812e-06
-3.71897e-06
-1.71131e-06
-3.50091e-06
-8.4455e-07
-2.88852e-06
-2.36147e-07
-1.91038e-06
-6.65609e-07
-2.86709e-07
9.77525e-07
-9.96968e-07
2.62935e-06
-1.98185e-06
3.83737e-06
-3.10459e-06
4.54902e-06
-4.24747e-06
4.77568e-06
-5.31421e-06
4.56409e-06
-6.22941e-06
3.98022e-06
-6.93639e-06
3.09868e-06
-7.39465e-06
1.99665e-06
-7.57778e-06
7.5194e-07
-7.47234e-06
-5.55898e-07
-7.07835e-06
-1.84324e-06
-6.4112e-06
-3.02009e-06
-5.50501e-06
-3.98957e-06
-4.41661e-06
-4.65076e-06
-3.22904e-06
-4.90654e-06
-2.05275e-06
-4.6772e-06
-1.02243e-06
-3.91883e-06
-2.8825e-07
-2.64456e-06
-9.5386e-07
-3.36302e-07
1.31383e-06
-1.16028e-06
3.45332e-06
-2.28783e-06
4.96492e-06
-3.55471e-06
5.8159e-06
-4.82623e-06
6.04721e-06
-5.99858e-06
5.73644e-06
-6.99547e-06
4.9771e-06
-7.76289e-06
3.86611e-06
-8.26382e-06
2.49757e-06
-8.47394e-06
9.62059e-07
-8.3793e-06
-6.50532e-07
-7.97628e-06
-2.24626e-06
-7.27403e-06
-3.72234e-06
-6.29949e-06
-4.96411e-06
-5.10431e-06
-5.84594e-06
-3.77226e-06
-6.23858e-06
-2.42472e-06
-6.02475e-06
-1.22066e-06
-5.12289e-06
-3.47682e-07
-3.51754e-06
-1.30154e-06
-3.9094e-07
1.70477e-06
-1.33483e-06
4.39721e-06
-2.60486e-06
6.23496e-06
-4.00576e-06
7.2168e-06
-5.38657e-06
7.42801e-06
-6.63944e-06
6.98931e-06
-7.69207e-06
6.02973e-06
-8.49806e-06
4.6721e-06
-9.02798e-06
3.02749e-06
-9.26248e-06
1.19656e-06
-9.18822e-06
-7.24796e-07
-8.79708e-06
-2.6374e-06
-8.089e-06
-4.43041e-06
-7.07871e-06
-5.9744e-06
-5.80608e-06
-7.11858e-06
-4.34887e-06
-7.69579e-06
-2.8347e-06
-7.53892e-06
-1.44703e-06
-6.51055e-06
-4.1808e-07
-4.54649e-06
-1.71962e-06
-4.53449e-07
2.15822e-06
-1.52567e-06
5.46943e-06
-2.93485e-06
7.64414e-06
-4.45006e-06
8.73201e-06
-5.90625e-06
8.8842e-06
-7.19772e-06
8.28078e-06
-8.26355e-06
7.09556e-06
-9.07194e-06
5.48049e-06
-9.60674e-06
3.56229e-06
-9.85746e-06
1.44728e-06
-9.81329e-06
-7.68967e-07
-9.46125e-06
-2.98944e-06
-8.78898e-06
-5.10267e-06
-7.79289e-06
-6.97049e-06
-6.49212e-06
-8.41935e-06
-4.9479e-06
-9.24001e-06
-3.28506e-06
-9.20175e-06
-1.70865e-06
-8.08696e-06
-5.03578e-07
-5.75156e-06
-2.2232e-06
-5.28345e-07
2.68656e-06
-1.73969e-06
6.68077e-06
-3.27802e-06
9.18248e-06
-4.8717e-06
1.03257e-05
-6.34711e-06
1.03596e-05
-7.61094e-06
9.54461e-06
-8.62448e-06
8.1091e-06
-9.37982e-06
6.23583e-06
-9.88113e-06
4.0636e-06
-1.01317e-05
1.69781e-06
-1.01259e-05
-7.74726e-07
-9.84645e-06
-3.2689e-06
-9.26608e-06
-5.68304e-06
-8.3564e-06
-7.88017e-06
-7.10474e-06
-9.67101e-06
-5.54073e-06
-1.0804e-05
-3.77072e-06
-1.09718e-05
-2.01217e-06
-9.84551e-06
-6.09689e-07
-7.15405e-06
-2.83289e-06
-6.23688e-07
3.31025e-06
-1.98745e-06
8.04454e-06
-3.63204e-06
1.08271e-05
-5.24212e-06
1.19358e-05
-6.64783e-06
1.17653e-05
-7.78479e-06
1.06816e-05
-8.65138e-06
8.97569e-06
-9.2747e-06
6.85916e-06
-9.68695e-06
4.47585e-06
-9.91023e-06
1.9211e-06
-9.94764e-06
-7.37325e-07
-9.77895e-06
-3.43758e-06
-9.36121e-06
-6.10078e-06
-8.63588e-06
-8.6055e-06
-7.54658e-06
-1.07603e-05
-6.07172e-06
-1.22789e-05
-4.27435e-06
-1.27691e-05
-2.36369e-06
-1.17562e-05
-7.44787e-07
-8.77294e-06
-3.57768e-06
-7.54108e-07
4.06435e-06
-2.28445e-06
9.57488e-06
-3.9872e-06
1.25298e-05
-5.50939e-06
1.3458e-05
-6.71e-06
1.29659e-05
-7.57905e-06
1.15506e-05
-8.17062e-06
9.56726e-06
-8.55826e-06
7.24679e-06
-8.80839e-06
4.72598e-06
-8.96572e-06
2.07843e-06
-9.04501e-06
-6.58029e-07
-9.02635e-06
-3.45625e-06
-8.85313e-06
-6.27401e-06
-8.43526e-06
-9.02336e-06
-7.66325e-06
-1.15323e-05
-6.44224e-06
-1.34999e-05
-4.7564e-06
-1.4455e-05
-2.76682e-06
-1.37458e-05
-9.22454e-07
-1.06173e-05
-4.50013e-06
-9.45244e-07
5.0096e-06
-2.64861e-06
1.12782e-05
-4.31122e-06
1.41924e-05
-5.57365e-06
1.47204e-05
-6.37116e-06
1.37634e-05
-6.78387e-06
1.19633e-05
-6.94118e-06
9.72457e-06
-6.97048e-06
7.27609e-06
-6.97356e-06
4.72907e-06
-7.01729e-06
2.12215e-06
-7.12936e-06
-5.45951e-07
-7.29446e-06
-3.29115e-06
-7.44926e-06
-6.11921e-06
-7.47841e-06
-8.99421e-06
-7.21835e-06
-1.17924e-05
-6.48304e-06
-1.42352e-05
-5.13362e-06
-1.58044e-05
-3.21507e-06
-1.56643e-05
-1.16441e-06
-1.2668e-05
-5.66454e-06
-1.23735e-06
6.24695e-06
-3.08341e-06
1.31243e-05
-4.50794e-06
1.5617e-05
-5.23485e-06
1.54473e-05
-5.35572e-06
1.38843e-05
-5.08246e-06
1.16901e-05
-4.63162e-06
9.27374e-06
-4.18006e-06
6.82453e-06
-3.8552e-06
4.40421e-06
-3.73788e-06
2.00483e-06
-3.86596e-06
-4.17868e-07
-4.23342e-06
-2.92369e-06
-4.78277e-06
-5.56985e-06
-5.39165e-06
-8.38533e-06
-5.85895e-06
-1.13251e-05
-5.9069e-06
-1.41872e-05
-5.23303e-06
-1.64783e-05
-3.66637e-06
-1.7231e-05
-1.50011e-06
-1.48342e-05
-7.16465e-06
-1.67384e-06
7.92079e-06
-3.51348e-06
1.4964e-05
-4.31552e-06
1.6419e-05
-4.08922e-06
1.5221e-05
-3.19353e-06
1.29886e-05
-1.99934e-06
1.04959e-05
-7.95855e-07
8.07025e-06
2.18541e-07
5.81013e-06
9.17384e-07
3.70536e-06
1.22474e-06
1.69747e-06
1.10122e-06
-2.94346e-07
5.40269e-07
-2.36274e-06
-4.23636e-07
-4.60595e-06
-1.69316e-06
-7.11581e-06
-3.07288e-06
-9.94537e-06
-4.23116e-06
-1.3029e-05
-4.69586e-06
-1.60136e-05
-3.96729e-06
-1.79595e-05
-1.94495e-06
-1.68566e-05
-9.1096e-06
-2.23071e-06
1.01515e-05
-3.59038e-06
1.63236e-05
-3.07796e-06
1.59066e-05
-1.34417e-06
1.34872e-05
8.96624e-07
1.07478e-05
3.15444e-06
8.23806e-06
5.13748e-06
6.08721e-06
6.68797e-06
4.25964e-06
7.72506e-06
2.66828e-06
8.20576e-06
1.21677e-06
8.10311e-06
-1.91696e-07
7.39831e-06
-1.65794e-06
6.08621e-06
-3.29385e-06
4.19863e-06
-5.22823e-06
1.85372e-06
-7.60045e-06
-6.62029e-07
-1.05132e-05
-2.79237e-06
-1.38832e-05
-3.66219e-06
-1.70897e-05
-2.41157e-06
-1.81072e-05
-1.15212e-05
-2.57383e-06
1.27253e-05
-2.18351e-06
1.59333e-05
7.17951e-07
1.30051e-05
4.46936e-06
9.7358e-06
8.13298e-06
7.08421e-06
1.13012e-05
5.06988e-06
1.38286e-05
3.55978e-06
1.56875e-05
2.40071e-06
1.6891e-05
1.46475e-06
1.74542e-05
6.53585e-07
1.73757e-05
-1.13188e-07
1.66299e-05
-9.12112e-07
1.51666e-05
-1.83059e-06
1.29231e-05
-2.98465e-06
9.8614e-06
-4.53879e-06
6.06171e-06
-6.71354e-06
1.91218e-06
-9.73371e-06
-1.5597e-06
-1.36178e-05
-2.45836e-06
-1.72085e-05
-1.39795e-05
-7.85013e-07
1.35103e-05
4.08078e-06
1.10675e-05
1.02975e-05
6.78841e-06
1.57935e-05
4.23977e-06
2.01578e-05
2.71988e-06
2.34578e-05
1.76991e-06
2.58605e-05
1.15711e-06
2.75212e-05
7.4003e-07
2.85536e-05
4.32279e-07
2.9026e-05
1.81216e-07
2.89618e-05
-4.89768e-08
2.83384e-05
-2.88686e-07
2.70815e-05
-5.73721e-07
2.50548e-05
-9.57932e-07
2.20515e-05
-1.5355e-06
1.78153e-05
-2.47739e-06
1.21723e-05
-4.09066e-06
5.47768e-06
-6.92322e-06
-1.29182e-07
-1.16017e-05
-1.41087e-05
1.35103e-05
2.45779e-05
3.13663e-05
3.5606e-05
3.83259e-05
4.00958e-05
4.12529e-05
4.1993e-05
4.24252e-05
4.26065e-05
4.25575e-05
4.22688e-05
4.16951e-05
4.07372e-05
3.92017e-05
3.67243e-05
3.26336e-05
2.57104e-05
1.41087e-05
)
;

boundaryField
{
    movingWall
    {
        type            calculated;
        value           uniform 0;
    }
    fixedWalls
    {
        type            calculated;
        value           uniform 0;
    }
    frontAndBack
    {
        type            empty;
        value           nonuniform List<scalar> 0();
    }
}


// ************************************************************************* //
