/*--------------------------------*- C++ -*----------------------------------*\
  =========                 |
  \\      /  F ield         | OpenFOAM: The Open Source CFD Toolbox
   \\    /   O peration     | Website:  https://openfoam.org
    \\  /    A nd           | Version:  8
     \\/     M anipulation  |
\*---------------------------------------------------------------------------*/
FoamFile
{
    version     2.0;
    format      ascii;
    class       surfaceScalarField;
    location    "0.94";
    object      phi;
}
// * * * * * * * * * * * * * * * * * * * * * * * * * * * * * * * * * * * * * //

dimensions      [0 3 -1 0 0 0 0];

internalField   nonuniform List<scalar> 
760
(
1.24901e-06
2.64426e-13
1.249e-06
1.50388e-12
1.249e-06
1.78429e-12
1.249e-06
1.55526e-12
1.249e-06
1.28082e-12
1.249e-06
1.03114e-12
1.249e-06
8.34271e-13
1.249e-06
6.76592e-13
1.249e-06
5.24016e-13
1.249e-06
3.85241e-13
1.249e-06
2.66147e-13
1.249e-06
1.35651e-13
1.249e-06
-3.86496e-14
1.249e-06
-2.7142e-13
1.249e-06
-5.83922e-13
1.249e-06
-1.02906e-12
1.249e-06
-1.69464e-12
1.249e-06
-2.43345e-12
1.249e-06
-2.62231e-12
-1.56832e-12
3.74703e-06
1.69644e-13
3.74703e-06
3.39978e-12
3.74703e-06
4.50951e-12
3.74703e-06
4.31741e-12
3.74702e-06
3.77881e-12
3.74702e-06
3.20017e-12
3.74702e-06
2.65034e-12
3.74702e-06
2.14805e-12
3.74702e-06
1.67958e-12
3.74702e-06
1.23005e-12
3.74702e-06
7.78426e-13
3.74702e-06
2.82978e-13
3.74702e-06
-3.08185e-13
3.74702e-06
-1.04959e-12
3.74702e-06
-2.00571e-12
3.74702e-06
-3.24866e-12
3.74702e-06
-4.81204e-12
3.74703e-06
-6.31723e-12
3.74703e-06
-6.43112e-12
-3.97225e-12
6.24513e-06
-4.07155e-13
6.24513e-06
4.52505e-12
6.24513e-06
6.68001e-12
6.24512e-06
6.86754e-12
6.24512e-06
6.28324e-12
6.24512e-06
5.488e-12
6.24512e-06
4.64829e-12
6.24512e-06
3.81733e-12
6.24512e-06
3.00279e-12
6.24511e-06
2.1964e-12
6.24511e-06
1.36532e-12
6.24511e-06
4.48584e-13
6.24511e-06
-6.27883e-13
6.24511e-06
-1.93817e-12
6.24512e-06
-3.55055e-12
6.24512e-06
-5.50473e-12
6.24512e-06
-7.7306e-12
6.24512e-06
-9.65421e-12
6.24513e-06
-9.6821e-12
-6.22724e-12
8.74334e-06
-1.31657e-12
8.74334e-06
4.72626e-12
8.74334e-06
7.81579e-12
8.74334e-06
8.50971e-12
8.74334e-06
8.10525e-12
8.74334e-06
7.2865e-12
8.74334e-06
6.29454e-12
8.74333e-06
5.24417e-12
8.74333e-06
4.17663e-12
8.74333e-06
3.08711e-12
8.74333e-06
1.93588e-12
8.74333e-06
6.56806e-13
8.74333e-06
-8.2796e-13
8.74333e-06
-2.59302e-12
8.74333e-06
-4.69166e-12
8.74334e-06
-7.11677e-12
8.74334e-06
-9.71185e-12
8.74334e-06
-1.18145e-11
8.74334e-06
-1.17966e-11
-7.96979e-12
1.12417e-05
-2.29552e-12
1.12417e-05
4.1644e-12
1.12417e-05
7.88208e-12
1.12417e-05
9.05738e-12
1.12417e-05
8.94215e-12
1.12417e-05
8.25321e-12
1.12417e-05
7.27938e-12
1.12417e-05
6.17033e-12
1.12417e-05
4.98965e-12
1.12417e-05
3.74539e-12
1.12417e-05
2.40466e-12
1.12417e-05
9.05479e-13
1.12417e-05
-8.24609e-13
1.12417e-05
-2.84734e-12
1.12417e-05
-5.19117e-12
1.12417e-05
-7.81155e-12
1.12417e-05
-1.0508e-11
1.12417e-05
-1.26334e-11
1.12417e-05
-1.26742e-11
-9.00837e-12
1.37403e-05
-3.16756e-12
1.37403e-05
3.08904e-12
1.37403e-05
7.03257e-12
1.37403e-05
8.55992e-12
1.37403e-05
8.75628e-12
1.37403e-05
8.29761e-12
1.37403e-05
7.47879e-12
1.37403e-05
6.46194e-12
1.37403e-05
5.32194e-12
1.37403e-05
4.07856e-12
1.37403e-05
2.71062e-12
1.37403e-05
1.16698e-12
1.37403e-05
-6.12423e-13
1.37403e-05
-2.67085e-12
1.37403e-05
-5.01083e-12
1.37403e-05
-7.56623e-12
1.37403e-05
-1.01337e-11
1.37403e-05
-1.21611e-11
1.37403e-05
-1.23656e-11
-9.26607e-12
1.62391e-05
-3.796e-12
1.62391e-05
1.72603e-12
1.62391e-05
5.50265e-12
1.62391e-05
7.19854e-12
1.62391e-05
7.65994e-12
1.62391e-05
7.47296e-12
1.62391e-05
6.90258e-12
1.62391e-05
6.1013e-12
1.62391e-05
5.14181e-12
1.62391e-05
4.04916e-12
1.62391e-05
2.81364e-12
1.62391e-05
1.39911e-12
1.62391e-05
-2.37059e-13
1.62391e-05
-2.11822e-12
1.62391e-05
-4.22692e-12
1.62391e-05
-6.49317e-12
1.62391e-05
-8.74548e-12
1.62391e-05
-1.0575e-11
1.62391e-05
-1.10109e-11
-8.76506e-12
1.87382e-05
-4.09483e-12
1.87382e-05
2.62278e-13
1.87382e-05
3.5296e-12
1.87382e-05
5.19518e-12
1.87382e-05
5.83971e-12
1.87382e-05
5.9225e-12
1.87382e-05
5.65296e-12
1.87382e-05
5.15461e-12
1.87382e-05
4.48484e-12
1.87382e-05
3.6665e-12
1.87382e-05
2.6991e-12
1.87382e-05
1.56285e-12
1.87382e-05
2.34331e-13
1.87382e-05
-1.29107e-12
1.87382e-05
-2.98313e-12
1.87382e-05
-4.78127e-12
1.87382e-05
-6.56988e-12
1.87382e-05
-8.11091e-12
1.87382e-05
-8.79328e-12
-7.58012e-12
2.12376e-05
-4.03339e-12
2.12376e-05
-1.15673e-12
2.12376e-05
1.32584e-12
2.12376e-05
2.7797e-12
2.12376e-05
3.51592e-12
2.12376e-05
3.84096e-12
2.12376e-05
3.89088e-12
2.12376e-05
3.74564e-12
2.12376e-05
3.43711e-12
2.12376e-05
2.97951e-12
2.12376e-05
2.37849e-12
2.12376e-05
1.63024e-12
2.12376e-05
7.30559e-13
2.12376e-05
-3.08505e-13
2.12376e-05
-1.45037e-12
2.12376e-05
-2.65254e-12
2.12376e-05
-3.86643e-12
2.12376e-05
-5.03565e-12
2.12376e-05
-5.93004e-12
-5.82119e-12
2.37373e-05
-3.63018e-12
2.37373e-05
-2.42856e-12
2.37373e-05
-9.27991e-13
2.37373e-05
1.73895e-13
2.37373e-05
9.20113e-13
2.37373e-05
1.44935e-12
2.37373e-05
1.81276e-12
2.37373e-05
2.03726e-12
2.37373e-05
2.12298e-12
2.37373e-05
2.07115e-12
2.37373e-05
1.89056e-12
2.37373e-05
1.59194e-12
2.37373e-05
1.18955e-12
2.37373e-05
7.10326e-13
2.37373e-05
1.93707e-13
2.37373e-05
-3.39158e-13
2.37373e-05
-9.07065e-13
2.37373e-05
-1.63185e-12
2.37373e-05
-2.66403e-12
-3.63471e-12
2.62373e-05
-2.94777e-12
2.62373e-05
-3.49364e-12
2.62373e-05
-3.08327e-12
2.62373e-05
-2.41647e-12
2.62373e-05
-1.71655e-12
2.62373e-05
-1.01933e-12
2.62373e-05
-3.64355e-13
2.62373e-05
2.18026e-13
2.62373e-05
6.94222e-13
2.62373e-05
1.05088e-12
2.62373e-05
1.29778e-12
2.62373e-05
1.45851e-12
2.62373e-05
1.56483e-12
2.62373e-05
1.65777e-12
2.62373e-05
1.77932e-12
2.62373e-05
1.93182e-12
2.62373e-05
2.03743e-12
2.62373e-05
1.81205e-12
2.62373e-05
7.41777e-13
-1.20297e-12
2.87376e-05
-2.08657e-12
2.87376e-05
-4.32715e-12
2.87376e-05
-5.0172e-12
2.87376e-05
-4.80146e-12
2.87376e-05
-4.1682e-12
2.87376e-05
-3.32913e-12
2.87376e-05
-2.41449e-12
2.87376e-05
-1.51049e-12
2.87376e-05
-6.81922e-13
2.87376e-05
4.47409e-14
2.87376e-05
6.79659e-13
2.87376e-05
1.25778e-12
2.87376e-05
1.82735e-12
2.87376e-05
2.44358e-12
2.87376e-05
3.15328e-12
2.87376e-05
3.9474e-12
2.87376e-05
4.70472e-12
2.87376e-05
5.00727e-12
2.87376e-05
4.00863e-12
1.2623e-12
3.12382e-05
-1.17381e-12
3.12382e-05
-4.92582e-12
3.12382e-05
-6.62111e-12
3.12382e-05
-6.80105e-12
3.12382e-05
-6.21546e-12
3.12382e-05
-5.24845e-12
3.12382e-05
-4.11426e-12
3.12383e-05
-2.94762e-12
3.12383e-05
-1.83702e-12
3.12383e-05
-8.1762e-13
3.12383e-05
1.22343e-13
3.12383e-05
1.02786e-12
3.12383e-05
1.96243e-12
3.12383e-05
2.99563e-12
3.12383e-05
4.18274e-12
3.12382e-05
5.51402e-12
3.12382e-05
6.84657e-12
3.12382e-05
7.66995e-12
3.12382e-05
6.84911e-12
3.53166e-12
3.37392e-05
-3.44947e-13
3.37392e-05
-5.29343e-12
3.37392e-05
-7.78588e-12
3.37392e-05
-8.2365e-12
3.37392e-05
-7.64531e-12
3.37392e-05
-6.55828e-12
3.37392e-05
-5.25715e-12
3.37392e-05
-3.91119e-12
3.37392e-05
-2.62e-12
3.37392e-05
-1.42026e-12
3.37392e-05
-2.96129e-13
3.37392e-05
8.06386e-13
3.37392e-05
1.96361e-12
3.37392e-05
3.25865e-12
3.37392e-05
4.75856e-12
3.37392e-05
6.46463e-12
3.37392e-05
8.23836e-12
3.37392e-05
9.52918e-12
3.37392e-05
8.97929e-12
5.3705e-12
3.62403e-05
2.85829e-13
3.62403e-05
-5.4212e-12
3.62403e-05
-8.38575e-12
3.62403e-05
-8.92377e-12
3.62403e-05
-8.25539e-12
3.62403e-05
-7.06662e-12
3.62403e-05
-5.67559e-12
3.62403e-05
-4.26287e-12
3.62403e-05
-2.9224e-12
3.62403e-05
-1.68345e-12
3.62403e-05
-5.23396e-13
3.62403e-05
6.1884e-13
3.62403e-05
1.8278e-12
3.62403e-05
3.19631e-12
3.62403e-05
4.8037e-12
3.62403e-05
6.67203e-12
3.62403e-05
8.69501e-12
3.62403e-05
1.03404e-11
3.62403e-05
1.01344e-11
6.54615e-12
3.87418e-05
6.48765e-13
3.87418e-05
-5.25204e-12
3.87418e-05
-8.26405e-12
3.87418e-05
-8.68165e-12
3.87418e-05
-7.88107e-12
3.87418e-05
-6.64393e-12
3.87418e-05
-5.27823e-12
3.87418e-05
-3.94342e-12
3.87418e-05
-2.70923e-12
3.87417e-05
-1.58849e-12
3.87417e-05
-5.49916e-13
3.87418e-05
4.70496e-13
3.87418e-05
1.55625e-12
3.87418e-05
2.80005e-12
3.87418e-05
4.28978e-12
3.87418e-05
6.07378e-12
3.87418e-05
8.10013e-12
3.87418e-05
9.91658e-12
3.87418e-05
1.00899e-11
6.84628e-12
4.12434e-05
7.13128e-13
4.12434e-05
-4.65238e-12
4.12434e-05
-7.24609e-12
4.12434e-05
-7.3659e-12
4.12434e-05
-6.45244e-12
4.12434e-05
-5.29021e-12
4.12434e-05
-4.11315e-12
4.12434e-05
-3.02374e-12
4.12434e-05
-2.05525e-12
4.12434e-05
-1.20035e-12
4.12434e-05
-4.20069e-13
4.12434e-05
3.4539e-13
4.12434e-05
1.16239e-12
4.12434e-05
2.10557e-12
4.12434e-05
3.26487e-12
4.12434e-05
4.71838e-12
4.12434e-05
6.47062e-12
4.12434e-05
8.20096e-12
4.12434e-05
8.69641e-12
6.14184e-12
4.37452e-05
5.2541e-13
4.37452e-05
-3.4069e-12
4.37451e-05
-5.18421e-12
4.37451e-05
-4.98234e-12
4.37451e-05
-4.12076e-12
4.37451e-05
-3.23979e-12
4.37451e-05
-2.44223e-12
4.37451e-05
-1.75121e-12
4.37451e-05
-1.16567e-12
4.37451e-05
-6.68811e-13
4.37451e-05
-2.25396e-13
4.37451e-05
2.10295e-13
4.37451e-05
6.78752e-13
4.37451e-05
1.22619e-12
4.37451e-05
1.92165e-12
4.37451e-05
2.83903e-12
4.37451e-05
4.03012e-12
4.37451e-05
5.36486e-12
4.37452e-05
5.9846e-12
4.40636e-12
4.6247e-05
1.99525e-13
4.6247e-05
-1.5475e-12
4.6247e-05
-2.22381e-12
4.6247e-05
-1.97088e-12
4.6247e-05
-1.48785e-12
4.6247e-05
-1.10617e-12
4.6247e-05
-8.0049e-13
4.6247e-05
-5.51116e-13
4.6247e-05
-3.54664e-13
4.6247e-05
-2.05073e-13
4.6247e-05
-7.46998e-14
4.6247e-05
6.68019e-14
4.6247e-05
2.21524e-13
4.6247e-05
3.89875e-13
4.6247e-05
6.18203e-13
4.6247e-05
9.5845e-13
4.6247e-05
1.43607e-12
4.6247e-05
2.04673e-12
4.6247e-05
2.45481e-12
1.93026e-12
4.8749e-05
4.8749e-05
4.8749e-05
4.8749e-05
4.8749e-05
4.8749e-05
4.8749e-05
4.8749e-05
4.8749e-05
4.8749e-05
4.8749e-05
4.8749e-05
4.8749e-05
4.8749e-05
4.8749e-05
4.8749e-05
4.8749e-05
4.8749e-05
4.8749e-05
)
;

boundaryField
{
    movingWall
    {
        type            calculated;
        value           uniform 0;
    }
    fixedWalls
    {
        type            calculated;
        value           uniform 0;
    }
    left
    {
        type            cyclic;
        value           nonuniform List<scalar> 
20
(
-3.87418e-05
-3.62403e-05
-3.37392e-05
-3.12382e-05
-2.87376e-05
-2.62373e-05
-2.37373e-05
-2.12376e-05
-1.87382e-05
-1.62391e-05
-1.37403e-05
-1.12417e-05
-8.74334e-06
-6.24513e-06
-3.74703e-06
-1.24901e-06
-4.12434e-05
-4.37452e-05
-4.6247e-05
-4.8749e-05
)
;
    }
    right
    {
        type            cyclic;
        value           nonuniform List<scalar> 
20
(
3.87418e-05
3.62403e-05
3.37392e-05
3.12382e-05
2.87376e-05
2.62373e-05
2.37373e-05
2.12376e-05
1.87382e-05
1.62391e-05
1.37403e-05
1.12417e-05
8.74334e-06
6.24513e-06
3.74703e-06
1.24901e-06
4.12434e-05
4.37452e-05
4.6247e-05
4.8749e-05
)
;
    }
    frontAndBack
    {
        type            empty;
        value           nonuniform List<scalar> 0();
    }
}


// ************************************************************************* //
