/*--------------------------------*- C++ -*----------------------------------*\
  =========                 |
  \\      /  F ield         | OpenFOAM: The Open Source CFD Toolbox
   \\    /   O peration     | Website:  https://openfoam.org
    \\  /    A nd           | Version:  8
     \\/     M anipulation  |
\*---------------------------------------------------------------------------*/
FoamFile
{
    version     2.0;
    format      ascii;
    class       volScalarField;
    location    "54.5";
    object      p;
}
// * * * * * * * * * * * * * * * * * * * * * * * * * * * * * * * * * * * * * //

dimensions      [0 2 -2 0 0 0 0];

internalField   nonuniform List<scalar> 
11600
(
1.65053e-07
-4.85558e-07
-3.09075e-07
1.8831e-07
1.25009e-06
2.81529e-06
4.87517e-06
7.42514e-06
1.04651e-05
1.39976e-05
1.80261e-05
2.25546e-05
2.7588e-05
3.31322e-05
3.91942e-05
4.57813e-05
5.29018e-05
6.05643e-05
6.87786e-05
7.7555e-05
8.69047e-05
9.68397e-05
0.000107373
0.000118517
0.000130287
0.000142698
0.000155765
0.000169507
0.00018394
0.000199084
0.00021496
0.000231589
0.000248993
0.000267197
0.000286226
0.000306105
0.000326863
0.000348528
0.000371129
0.000394698
0.000419267
0.000444868
0.000471535
0.000499302
0.000528203
0.000558272
0.000589542
0.00062204
0.000655791
0.000690808
0.000727085
0.000764578
0.000803184
0.000842681
0.000882525
0.000922035
0.000963057
0.000989207
0.0010549
0.00101299
7.72597e-07
1.3099e-07
4.67254e-07
1.05142e-06
2.16129e-06
3.7496e-06
5.81961e-06
8.37433e-06
1.14159e-05
1.4948e-05
1.89752e-05
2.35023e-05
2.85343e-05
3.40769e-05
4.01368e-05
4.67215e-05
5.38389e-05
6.1498e-05
6.97083e-05
7.84803e-05
8.78249e-05
9.77542e-05
0.000108281
0.000119417
0.000131179
0.00014358
0.000156637
0.000170367
0.000184787
0.000199917
0.000215777
0.000232388
0.000249774
0.000267957
0.000286963
0.000306819
0.00032755
0.000349187
0.000371759
0.000395296
0.000419831
0.000445396
0.000472026
0.000499755
0.000528617
0.000558646
0.000589875
0.000622334
0.000656049
0.000691035
0.000727297
0.000764816
0.000803537
0.000843345
0.000884102
0.000925898
0.000969001
0.00101051
0.00107197
0.0011133
5.45322e-07
-2.47929e-07
1.0081e-07
6.80012e-07
1.79299e-06
3.3813e-06
5.44882e-06
8.00014e-06
1.10374e-05
1.45638e-05
1.85835e-05
2.31017e-05
2.81235e-05
3.3655e-05
3.97027e-05
4.62737e-05
5.33764e-05
6.10194e-05
6.92123e-05
7.79654e-05
8.72897e-05
9.71971e-05
0.0001077
0.000118812
0.000130546
0.000142919
0.000155945
0.000169642
0.000184027
0.00019912
0.00021494
0.000231509
0.00024885
0.000266987
0.000285944
0.000305747
0.000326424
0.000348004
0.000370516
0.000393991
0.000418462
0.000443962
0.000470524
0.000498185
0.000526979
0.000556942
0.000588108
0.000620511
0.000654182
0.000689143
0.000725411
0.000762986
0.000801846
0.000841937
0.000883234
0.000925879
0.000970073
0.00101592
0.00107416
0.00112284
-8.11943e-08
-9.62466e-07
-5.94177e-07
-1.18888e-08
1.11003e-06
2.70225e-06
4.76818e-06
7.31417e-06
1.03437e-05
1.38603e-05
1.78684e-05
2.23728e-05
2.7379e-05
3.2893e-05
3.89215e-05
4.54715e-05
5.25512e-05
6.01692e-05
6.83351e-05
7.7059e-05
8.63519e-05
9.62254e-05
0.000106692
0.000117765
0.000129458
0.000141786
0.000154764
0.00016841
0.000182741
0.000197776
0.000213536
0.000230041
0.000247314
0.000265378
0.000284259
0.000303983
0.000324576
0.000346068
0.000368488
0.000391868
0.000416239
0.000441637
0.000468095
0.00049565
0.000524338
0.000554197
0.000585265
0.00061758
0.000651179
0.0006861
0.000722379
0.000760054
0.000799169
0.000839791
0.00088206
0.000926265
0.000972884
0.00102315
0.00108034
0.00113927
-1.38462e-06
-2.31803e-06
-1.94637e-06
-1.37357e-06
-2.5475e-07
1.33306e-06
3.39183e-06
5.92766e-06
8.9444e-06
1.24459e-05
1.64366e-05
2.09212e-05
2.59052e-05
3.13944e-05
3.73956e-05
4.3916e-05
5.09634e-05
5.85464e-05
6.66745e-05
7.53577e-05
8.46069e-05
9.44336e-05
0.00010485
0.000115869
0.000127505
0.000139772
0.000152685
0.000166262
0.00018052
0.000195478
0.000211155
0.000227574
0.000244755
0.000262723
0.000281503
0.00030112
0.000321602
0.000342977
0.000365275
0.000388528
0.000412769
0.000438032
0.000464351
0.000491766
0.000520312
0.000550031
0.000580963
0.000613151
0.000646637
0.000681469
0.000717697
0.00075538
0.00079459
0.000835433
0.000878079
0.000922799
0.000970046
0.00102078
0.00107601
0.00113456
-3.32545e-06
-4.28511e-06
-3.9135e-06
-3.35122e-06
-2.24015e-06
-6.61423e-07
1.38615e-06
3.90797e-06
6.90765e-06
1.03892e-05
1.43569e-05
1.88158e-05
2.3771e-05
2.92285e-05
3.51948e-05
4.16771e-05
4.86832e-05
5.62216e-05
6.43016e-05
7.2933e-05
8.21266e-05
9.18937e-05
0.000102246
0.000113198
0.000124761
0.000136951
0.000149783
0.000163273
0.000177439
0.000192299
0.000207874
0.000224184
0.000241251
0.000259098
0.000277751
0.000297235
0.000317578
0.000338807
0.000360953
0.000384048
0.000408125
0.000433218
0.000459364
0.0004866
0.000514967
0.000544506
0.00057526
0.000607275
0.000640601
0.000675291
0.000711407
0.00074902
0.00078822
0.000829132
0.000871927
0.000916846
0.000964247
0.00101465
0.00106834
0.0011252
-5.89958e-06
-6.87156e-06
-6.50189e-06
-5.94915e-06
-4.84831e-06
-3.28232e-06
-1.24994e-06
1.25377e-06
4.23205e-06
7.68876e-06
1.16283e-05
1.60554e-05
2.09754e-05
2.63941e-05
3.23179e-05
3.87539e-05
4.57098e-05
5.3194e-05
6.12155e-05
6.97841e-05
7.89104e-05
8.86055e-05
9.88813e-05
0.00010975
0.000121226
0.000133323
0.000146057
0.000159443
0.000173498
0.000188242
0.000203693
0.000219872
0.000236802
0.000254505
0.000273007
0.000292331
0.000312507
0.000333562
0.000355526
0.000378431
0.00040231
0.000427199
0.000453134
0.000480155
0.000508302
0.000537617
0.000568147
0.00059994
0.000633049
0.00066753
0.000703451
0.000740887
0.00077993
0.000820697
0.000863336
0.000908033
0.000955031
0.00100459
0.00105678
0.00111151
-9.10138e-06
-1.00799e-05
-9.71469e-06
-9.17135e-06
-8.08244e-06
-6.5319e-06
-4.51822e-06
-2.03661e-06
9.15925e-07
4.34303e-06
8.24899e-06
1.26386e-05
1.75169e-05
2.28898e-05
2.87635e-05
3.51451e-05
4.20419e-05
4.94624e-05
5.74153e-05
6.59103e-05
7.49576e-05
8.45683e-05
9.4754e-05
0.000105527
0.000116901
0.00012889
0.000141508
0.000154772
0.000168699
0.000183306
0.000198614
0.000214642
0.000231412
0.000248947
0.000267271
0.000286411
0.000306392
0.000327243
0.000348994
0.000371678
0.000395327
0.000419977
0.000445665
0.000472431
0.000500316
0.000529364
0.000559623
0.000591141
0.000623974
0.00065818
0.000693826
0.000730987
0.000769751
0.000810219
0.000852511
0.000896764
0.000943127
0.000991712
0.00104251
0.00109537
-1.29254e-05
-1.39073e-05
-1.35486e-05
-1.30155e-05
-1.19402e-05
-1.04074e-05
-8.41554e-06
-5.95975e-06
-3.03721e-06
3.55558e-07
4.22274e-06
8.56896e-06
1.33993e-05
1.87195e-05
2.45357e-05
3.08547e-05
3.76838e-05
4.50312e-05
5.29055e-05
6.1316e-05
7.0273e-05
7.97871e-05
8.98698e-05
0.000100533
0.000111791
0.000123656
0.000136143
0.000149268
0.000163048
0.0001775
0.000192643
0.000208498
0.000225086
0.00024243
0.000260553
0.000279481
0.00029924
0.000319859
0.000341368
0.000363798
0.000387183
0.000411559
0.000436963
0.000463435
0.000491017
0.000519754
0.000549694
0.000580886
0.000613386
0.000647253
0.000682552
0.000719355
0.000757741
0.000797798
0.000839621
0.000883307
0.000928943
0.00097657
0.00102614
0.00107748
-1.73668e-05
-1.835e-05
-1.79989e-05
-1.74772e-05
-1.64175e-05
-1.49048e-05
-1.29375e-05
-1.05111e-05
-7.62266e-06
-4.26885e-06
-4.4561e-07
3.85159e-06
8.62778e-06
1.38885e-05
1.96397e-05
2.58881e-05
3.2641e-05
3.9906e-05
4.76917e-05
5.60073e-05
6.48626e-05
7.42681e-05
8.42351e-05
9.47754e-05
0.000105902
0.000117628
0.000129968
0.000142937
0.000156552
0.00017083
0.00018579
0.000201451
0.000217835
0.000234964
0.000252861
0.000271552
0.000291062
0.00031142
0.000332656
0.000354801
0.000377889
0.000401955
0.000427038
0.000453178
0.000480416
0.000508798
0.000538371
0.000569187
0.000601299
0.000634768
0.000669655
0.000706029
0.000743962
0.000783529
0.000824807
0.000867865
0.000912754
0.000959484
0.00100799
0.00105813
-2.24204e-05
-2.34039e-05
-2.30608e-05
-2.25518e-05
-2.15095e-05
-2.00191e-05
-1.80794e-05
-1.56857e-05
-1.28353e-05
-9.52495e-06
-5.7507e-06
-1.5081e-06
3.20776e-06
8.40226e-06
1.40813e-05
2.02513e-05
2.69193e-05
3.40929e-05
4.17804e-05
4.99906e-05
5.87331e-05
6.80182e-05
7.78569e-05
8.82607e-05
9.92421e-05
0.000110814
0.000122991
0.000135788
0.00014922
0.000163306
0.000178062
0.000193509
0.000209667
0.000226558
0.000244205
0.000262633
0.000281867
0.000301936
0.000322869
0.000344698
0.000367456
0.000391178
0.000415903
0.000441671
0.000468524
0.000496507
0.000525668
0.000556058
0.000587732
0.000620748
0.000655167
0.000691052
0.000728472
0.000767492
0.000808176
0.000850579
0.000894734
0.000940638
0.000988237
0.0010374
-2.80799e-05
-2.90637e-05
-2.87293e-05
-2.82338e-05
-2.72106e-05
-2.57449e-05
-2.38355e-05
-2.14779e-05
-1.86694e-05
-1.5407e-05
-1.16866e-05
-7.50409e-06
-2.85458e-06
2.26716e-06
7.86685e-06
1.39507e-05
2.05256e-05
2.75988e-05
3.51784e-05
4.32729e-05
5.18918e-05
6.10449e-05
7.0743e-05
8.09973e-05
9.18199e-05
0.000103224
0.000115222
0.00012783
0.000141062
0.000154937
0.000169471
0.000184683
0.000200594
0.000217224
0.000234597
0.000252737
0.000271668
0.00029142
0.00031202
0.000333501
0.000355896
0.00037924
0.00040357
0.000428928
0.000455354
0.000482896
0.0005116
0.000541518
0.000572704
0.000605216
0.000639114
0.000674459
0.000711316
0.000749745
0.000789803
0.000831538
0.000874978
0.00092012
0.000966923
0.00101529
-3.4339e-05
-3.53234e-05
-3.49983e-05
-3.45173e-05
-3.3515e-05
-3.20762e-05
-3.01998e-05
-2.78815e-05
-2.51187e-05
-2.19084e-05
-1.82468e-05
-1.41297e-05
-9.55248e-06
-4.50997e-06
1.00333e-06
6.99346e-06
1.3467e-05
2.0431e-05
2.78933e-05
3.58622e-05
4.43467e-05
5.33565e-05
6.29019e-05
7.29939e-05
8.3644e-05
9.48648e-05
0.000106669
0.000119072
0.000132088
0.000145734
0.000160026
0.000174984
0.000190626
0.000206973
0.000224049
0.000241875
0.000260478
0.000279884
0.000300123
0.000321225
0.000343224
0.000366154
0.000390054
0.000414962
0.000440923
0.00046798
0.000496182
0.000525582
0.000556233
0.000588192
0.00062152
0.000656277
0.000692526
0.000730325
0.000769731
0.000810789
0.000853528
0.000897955
0.000944045
0.000991738
-4.1191e-05
-4.21762e-05
-4.18612e-05
-4.13958e-05
-4.04159e-05
-3.90062e-05
-3.71655e-05
-3.48897e-05
-3.21763e-05
-2.90224e-05
-2.54243e-05
-2.13778e-05
-1.68786e-05
-1.19217e-05
-6.50166e-06
-6.12757e-07
5.75137e-06
1.25976e-05
1.99334e-05
2.77668e-05
3.61066e-05
4.4962e-05
5.43429e-05
6.426e-05
7.47244e-05
8.57481e-05
9.73441e-05
0.000109526
0.000122309
0.000135708
0.00014974
0.000164423
0.000179776
0.000195819
0.000212573
0.000230061
0.000248309
0.000267343
0.000287191
0.000307884
0.000329454
0.000351937
0.000375369
0.000399791
0.000425244
0.000451775
0.000479432
0.000508267
0.000538335
0.000569694
0.000602403
0.000636525
0.000672122
0.000709255
0.000747979
0.000788345
0.000830387
0.000874125
0.000919555
0.000966644
-4.86291e-05
-4.96148e-05
-4.93108e-05
-4.88621e-05
-4.79063e-05
-4.65277e-05
-4.47254e-05
-4.24951e-05
-3.98347e-05
-3.67413e-05
-3.32112e-05
-2.92406e-05
-2.48251e-05
-1.99599e-05
-1.464e-05
-8.8596e-06
-2.61272e-06
4.10729e-06
1.13076e-05
1.8996e-05
2.71808e-05
3.58709e-05
4.50758e-05
5.48057e-05
6.50713e-05
7.58843e-05
8.72571e-05
9.9203e-05
0.000111736
0.000124872
0.000138626
0.000153015
0.000168058
0.000183774
0.000200184
0.000217311
0.000235178
0.000253812
0.000273241
0.000293494
0.000314604
0.000336604
0.000359533
0.000383429
0.000408335
0.000434297
0.000461364
0.000489588
0.000519025
0.000549735
0.000581777
0.000615215
0.000650114
0.000686538
0.000724547
0.000764196
0.000805532
0.000848587
0.000893377
0.000939899
-5.66456e-05
-5.76316e-05
-5.73394e-05
-5.69085e-05
-5.59784e-05
-5.4633e-05
-5.28715e-05
-5.06899e-05
-4.8086e-05
-4.50569e-05
-4.15994e-05
-3.77097e-05
-3.33834e-05
-2.86161e-05
-2.34029e-05
-1.77382e-05
-1.16162e-05
-5.03065e-06
2.02544e-06
9.55945e-06
1.75793e-05
2.60936e-05
3.51112e-05
4.46419e-05
5.46962e-05
6.5285e-05
7.64204e-05
8.81152e-05
0.000100383
0.000113238
0.000126696
0.000140773
0.000155486
0.000170855
0.000186898
0.000203639
0.000221101
0.000239309
0.00025829
0.000278073
0.00029869
0.000320174
0.000342563
0.000365895
0.000390212
0.000415563
0.000441994
0.000469561
0.000498318
0.000528327
0.00055965
0.000592352
0.000626503
0.00066217
0.000699421
0.000738318
0.000778919
0.000821273
0.000865417
0.000911375
-6.52325e-05
-6.62186e-05
-6.59387e-05
-6.55267e-05
-6.46239e-05
-6.33137e-05
-6.15956e-05
-5.94655e-05
-5.69214e-05
-5.39608e-05
-5.05802e-05
-4.67762e-05
-4.25446e-05
-3.78811e-05
-3.2781e-05
-2.7239e-05
-2.12495e-05
-1.48063e-05
-7.90303e-06
-5.32514e-07
7.31274e-06
1.56408e-05
2.44602e-05
3.37802e-05
4.36107e-05
5.39624e-05
6.48467e-05
7.62758e-05
8.82627e-05
0.000100821
0.000113966
0.000127711
0.000142076
0.000157076
0.000172732
0.000189064
0.000206095
0.00022385
0.000242356
0.000261639
0.000281731
0.000302665
0.000324477
0.000347207
0.000370896
0.00039559
0.00042134
0.0004482
0.000476226
0.00050548
0.000536028
0.000567939
0.000601284
0.000636139
0.000672576
0.00071067
0.000750492
0.000792105
0.000835569
0.000880934
-7.43809e-05
-7.53669e-05
-7.51e-05
-7.4708e-05
-7.38339e-05
-7.2561e-05
-7.08886e-05
-6.8813e-05
-6.63321e-05
-6.34435e-05
-6.01442e-05
-5.64307e-05
-5.22991e-05
-4.77452e-05
-4.27645e-05
-3.7352e-05
-3.15022e-05
-2.52093e-05
-1.84671e-05
-1.12689e-05
-3.60771e-06
4.5241e-06
1.31346e-05
2.22326e-05
3.18275e-05
4.19294e-05
5.25493e-05
6.36987e-05
7.53898e-05
8.76356e-05
0.00010045
0.000113847
0.000127843
0.000142455
0.000157701
0.000173602
0.000190179
0.000207456
0.000225458
0.000244212
0.000263748
0.000284098
0.000305298
0.000327386
0.000350404
0.000374399
0.00039942
0.000425521
0.000452761
0.000481204
0.000510917
0.000541973
0.000574449
0.000608425
0.000643983
0.000681209
0.000720186
0.000760996
0.00080372
0.000848433
-8.40816e-05
-8.50673e-05
-8.48142e-05
-8.44431e-05
-8.35992e-05
-8.23654e-05
-8.07412e-05
-7.87227e-05
-7.63083e-05
-7.34956e-05
-7.02816e-05
-6.66633e-05
-6.26368e-05
-5.81982e-05
-5.3343e-05
-4.80665e-05
-4.23635e-05
-3.62284e-05
-2.96554e-05
-2.26382e-05
-1.51702e-05
-7.24437e-06
1.14697e-06
1.00121e-05
1.93598e-05
2.91998e-05
3.95424e-05
5.03984e-05
6.17792e-05
7.3697e-05
8.61646e-05
9.91958e-05
0.000112805
0.00012701
0.000141826
0.000157274
0.000173373
0.000190147
0.000207618
0.000225814
0.000244762
0.000264495
0.000285046
0.000306453
0.000328759
0.000352008
0.000376251
0.000401541
0.000427939
0.000455509
0.000484322
0.000514454
0.000545988
0.000579008
0.000613609
0.000649884
0.000687931
0.000727853
0.000769749
0.000813722
-9.43249e-05
-9.53101e-05
-9.50713e-05
-9.4722e-05
-9.39099e-05
-9.27171e-05
-9.11433e-05
-8.91847e-05
-8.68399e-05
-8.41066e-05
-8.09822e-05
-7.74635e-05
-7.35471e-05
-6.92292e-05
-6.45055e-05
-5.93714e-05
-5.3822e-05
-4.78521e-05
-4.14561e-05
-3.46283e-05
-2.73624e-05
-1.96519e-05
-1.14897e-05
-2.86805e-06
6.22147e-06
1.57879e-05
2.58407e-05
3.63902e-05
4.74468e-05
5.90218e-05
7.11272e-05
8.37757e-05
9.69813e-05
0.000110759
0.000125126
0.000140099
0.000155698
0.000171944
0.000188859
0.000206467
0.000224798
0.000243879
0.000263746
0.000284434
0.000305984
0.000328441
0.000351855
0.000376279
0.000401774
0.000428407
0.00045625
0.000485383
0.000515892
0.00054787
0.000581419
0.000616644
0.00065366
0.000692583
0.000733538
0.000776651
-0.000105101
-0.000106085
-0.000105861
-0.000105535
-0.000104756
-0.000103606
-0.000102084
-0.000100188
-9.79163e-05
-9.52659e-05
-9.22349e-05
-8.88203e-05
-8.50189e-05
-8.08269e-05
-7.62404e-05
-7.12549e-05
-6.58658e-05
-6.00682e-05
-5.38568e-05
-4.72264e-05
-4.01712e-05
-3.26852e-05
-2.47618e-05
-1.63936e-05
-7.57298e-06
1.70854e-06
1.14598e-05
2.16901e-05
3.24091e-05
4.36271e-05
5.53552e-05
6.76051e-05
8.03899e-05
9.37235e-05
0.000107621
0.000122099
0.000137176
0.00015287
0.000169203
0.000186197
0.000203879
0.000222278
0.000241424
0.000261354
0.000282106
0.000303724
0.000326257
0.000349758
0.000374288
0.000399915
0.000426712
0.000454762
0.000484156
0.000514994
0.000547384
0.000581445
0.000617303
0.000655096
0.000694967
0.000737072
-0.000116398
-0.000117381
-0.000117173
-0.00011687
-0.000116125
-0.00011502
-0.000113554
-0.000111723
-0.000109526
-0.000106962
-0.000104029
-0.000100722
-9.70404e-05
-9.29796e-05
-8.85357e-05
-8.37048e-05
-7.84824e-05
-7.28639e-05
-6.68445e-05
-6.04193e-05
-5.35832e-05
-4.63304e-05
-3.86549e-05
-3.055e-05
-2.20084e-05
-1.30226e-05
-3.58437e-06
6.31465e-06
1.66832e-05
2.75308e-05
3.88672e-05
5.07034e-05
6.30512e-05
7.59235e-05
8.9334e-05
0.000103298
0.000117831
0.00013295
0.000148676
0.00016503
0.000182034
0.000199718
0.000218109
0.000237242
0.000257153
0.000277885
0.000299484
0.000322004
0.000345504
0.000370052
0.000395723
0.000422602
0.000450782
0.00048037
0.000511482
0.000544245
0.000578802
0.000615306
0.000653924
0.000694838
-0.000128206
-0.000129187
-0.000128995
-0.000128717
-0.000128008
-0.000126949
-0.00012554
-0.000123776
-0.000121658
-0.000119184
-0.000116351
-0.000113157
-0.0001096
-0.000105675
-0.000101379
-9.67083e-05
-9.16587e-05
-8.6226e-05
-8.04057e-05
-7.41933e-05
-6.75842e-05
-6.05731e-05
-5.31543e-05
-4.53219e-05
-3.70692e-05
-2.83893e-05
-1.9275e-05
-9.71881e-06
2.87189e-07
1.07513e-05
2.16826e-05
3.30908e-05
4.49865e-05
5.73812e-05
7.02872e-05
8.37177e-05
9.76869e-05
0.000112211
0.000127306
0.000142993
0.000159293
0.00017623
0.000193832
0.00021213
0.000231158
0.000250956
0.000271569
0.000293048
0.000315452
0.000338846
0.000363307
0.000388918
0.000415779
0.000443997
0.000473696
0.000505014
0.000538105
0.000573139
0.000610306
0.000649812
-0.000140512
-0.000141492
-0.000141316
-0.000141064
-0.000140392
-0.000139381
-0.00013803
-0.000136337
-0.000134301
-0.000131919
-0.000129191
-0.000126113
-0.000122684
-0.0001189
-0.000114757
-0.000110252
-0.000105381
-0.000100141
-9.45263e-05
-8.8534e-05
-8.21595e-05
-7.53981e-05
-6.82447e-05
-6.06936e-05
-5.27391e-05
-4.4375e-05
-3.5595e-05
-2.63925e-05
-1.67606e-05
-6.69193e-06
3.8214e-06
1.47881e-05
2.62174e-05
3.81194e-05
5.05046e-05
6.33844e-05
7.67712e-05
9.06786e-05
0.000105122
0.000120118
0.000135686
0.000151848
0.000168628
0.000186054
0.000204158
0.000222976
0.00024255
0.000262929
0.000284168
0.000306332
0.000329494
0.000353739
0.000379166
0.000405886
0.000434027
0.000463735
0.000495175
0.000528534
0.000564021
0.000601869
-0.000153305
-0.000154283
-0.000154124
-0.000153898
-0.000153264
-0.000152302
-0.000151013
-0.000149392
-0.00014744
-0.000145154
-0.000142534
-0.000139577
-0.00013628
-0.000132641
-0.000128656
-0.000124322
-0.000119636
-0.000114594
-0.000109192
-0.000103427
-9.72941e-05
-9.07901e-05
-8.39099e-05
-7.66487e-05
-6.90012e-05
-6.09623e-05
-5.25263e-05
-4.36879e-05
-3.44409e-05
-2.47791e-05
-1.46956e-05
-4.18291e-06
6.76678e-06
1.81618e-05
3.00111e-05
4.2324e-05
5.51109e-05
6.8383e-05
8.21532e-05
9.64358e-05
0.000111247
0.000126606
0.000142533
0.000159053
0.000176193
0.000193987
0.000212471
0.000231691
0.000251698
0.000272553
0.000294327
0.000317102
0.000340976
0.000366062
0.000392488
0.000420408
0.000449995
0.00048145
0.000515
0.000550904
-0.000166573
-0.000167547
-0.000167406
-0.000167206
-0.000166612
-0.000165702
-0.000164475
-0.000162929
-0.000161064
-0.000158877
-0.000156368
-0.000153535
-0.000150375
-0.000146885
-0.000143063
-0.000138905
-0.000134409
-0.000129571
-0.000124387
-0.000118856
-0.000112972
-0.000106733
-0.000100134
-9.31703e-05
-8.58383e-05
-7.81333e-05
-7.00508e-05
-6.1586e-05
-5.27341e-05
-4.34896e-05
-3.38469e-05
-2.37999e-05
-1.33421e-05
-2.46697e-06
8.8325e-06
2.05637e-05
3.27346e-05
4.53542e-05
5.84326e-05
7.19814e-05
8.60134e-05
0.000100544
0.000115589
0.00013117
0.000147309
0.000164035
0.00018138
0.000199383
0.000218092
0.000237562
0.000257858
0.000279059
0.000301258
0.000324566
0.000349114
0.000375055
0.00040257
0.000431869
0.000463197
0.000496835
-0.000180301
-0.000181272
-0.000181149
-0.000180977
-0.000180423
-0.000179565
-0.000178403
-0.000176934
-0.000175158
-0.000173073
-0.000170679
-0.000167973
-0.000164953
-0.000161617
-0.000157962
-0.000153985
-0.000149684
-0.000145056
-0.000140097
-0.000134806
-0.000129178
-0.00012321
-0.000116899
-0.000110241
-0.000103233
-9.587e-05
-8.81495e-05
-8.00674e-05
-7.16199e-05
-6.28025e-05
-5.36107e-05
-4.40399e-05
-3.40853e-05
-2.37418e-05
-1.30047e-05
-1.86865e-06
9.67205e-06
2.16238e-05
3.39937e-05
4.67901e-05
6.00223e-05
7.3701e-05
8.78388e-05
0.000102451
0.000117555
0.000133174
0.000149334
0.000166067
0.000183414
0.000201423
0.000220153
0.000239675
0.000260077
0.000281462
0.00030396
0.000327722
0.000352931
0.000379805
0.000408599
0.000439614
-0.000194477
-0.000195444
-0.00019534
-0.000195195
-0.000194683
-0.000193879
-0.000192784
-0.000191394
-0.000189709
-0.000187729
-0.000185452
-0.000182877
-0.000180001
-0.000176823
-0.000173339
-0.000169548
-0.000165447
-0.000161034
-0.000156306
-0.00015126
-0.000145894
-0.000140204
-0.000134189
-0.000127843
-0.000121166
-0.000114153
-0.000106803
-9.91122e-05
-9.10776e-05
-8.26962e-05
-7.39646e-05
-6.48797e-05
-5.54381e-05
-4.5637e-05
-3.54733e-05
-2.4944e-05
-1.4046e-05
-2.77554e-06
8.8714e-06
2.08995e-05
3.3314e-05
4.61212e-05
5.93287e-05
7.29461e-05
8.69853e-05
0.000101462
0.000116395
0.000131809
0.000147735
0.000164214
0.000181293
0.000199035
0.000217516
0.000236835
0.000257109
0.000278486
0.000301146
0.000325306
0.00035123
0.000379233
-0.000209086
-0.000210049
-0.000209963
-0.000209847
-0.000209377
-0.000208629
-0.000207602
-0.000206293
-0.000204703
-0.00020283
-0.000200673
-0.000198232
-0.000195504
-0.000192486
-0.000189178
-0.000185577
-0.000181682
-0.000177489
-0.000172996
-0.000168202
-0.000163104
-0.000157699
-0.000151985
-0.000145959
-0.00013962
-0.000132965
-0.000125992
-0.0001187
-0.000111086
-0.000103149
-9.48858e-05
-8.62952e-05
-7.73757e-05
-6.8126e-05
-5.85454e-05
-4.8633e-05
-3.83882e-05
-2.78102e-05
-1.68984e-05
-5.65191e-06
5.93031e-06
1.78496e-05
3.01081e-05
4.27091e-05
5.56578e-05
6.89618e-05
8.2632e-05
9.66836e-05
0.000111137
0.000126021
0.000141371
0.000157237
0.000173684
0.000190794
0.000208673
0.000227458
0.000247319
0.000268467
0.000291167
0.000315739
-0.000224114
-0.000225072
-0.000225005
-0.000224919
-0.000224492
-0.0002238
-0.000222843
-0.000221617
-0.000220123
-0.00021836
-0.000216327
-0.000214023
-0.000211445
-0.000208593
-0.000205464
-0.000202058
-0.000198371
-0.000194403
-0.000190152
-0.000185615
-0.00018079
-0.000175675
-0.000170269
-0.000164569
-0.000158574
-0.000152284
-0.000145696
-0.00013881
-0.000131624
-0.000124138
-0.000116351
-0.000108262
-9.98727e-05
-9.11824e-05
-8.21929e-05
-7.29056e-05
-6.33226e-05
-5.34461e-05
-4.32789e-05
-3.28242e-05
-2.20855e-05
-1.10667e-05
2.28295e-07
1.17962e-05
2.36346e-05
3.57424e-05
4.8121e-05
6.07743e-05
7.37108e-05
8.69445e-05
0.000100498
0.000114403
0.000128707
0.000143475
0.000158796
0.000174786
0.000191598
0.000209432
0.000228539
0.00024924
-0.000239547
-0.000240499
-0.000240452
-0.000240394
-0.000240012
-0.000239378
-0.000238492
-0.000237351
-0.000235956
-0.000234305
-0.000232398
-0.000230233
-0.00022781
-0.000225126
-0.000222181
-0.000218972
-0.0002155
-0.000211762
-0.000207756
-0.000203481
-0.000198935
-0.000194116
-0.000189023
-0.000183655
-0.000178011
-0.000172091
-0.000165894
-0.00015942
-0.000152669
-0.000145641
-0.000138337
-0.000130757
-0.000122904
-0.000114779
-0.000106387
-9.77317e-05
-8.8817e-05
-7.96486e-05
-7.02328e-05
-6.0577e-05
-5.06895e-05
-4.05796e-05
-3.02576e-05
-1.97339e-05
-9.01923e-06
1.87606e-06
1.29423e-05
2.4171e-05
3.55564e-05
4.70966e-05
5.87959e-05
7.06675e-05
8.27367e-05
9.50452e-05
0.000107656
0.000120659
0.000134183
0.0001484
0.000163544
0.00017992
-0.000255369
-0.000256314
-0.000256287
-0.000256259
-0.000255922
-0.000255347
-0.000254533
-0.000253479
-0.000252184
-0.000250648
-0.000248869
-0.000246847
-0.000244581
-0.000242069
-0.00023931
-0.000236304
-0.00023305
-0.000229546
-0.00022579
-0.000221782
-0.000217519
-0.000213002
-0.000208228
-0.000203197
-0.00019791
-0.000192367
-0.000186567
-0.000180511
-0.0001742
-0.000167636
-0.00016082
-0.000153754
-0.000146443
-0.00013889
-0.0001311
-0.000123081
-0.000114839
-0.000106383
-9.77227e-05
-8.88696e-05
-7.98371e-05
-7.06402e-05
-6.12955e-05
-5.18211e-05
-4.22363e-05
-3.25618e-05
-2.28192e-05
-1.30307e-05
-3.21798e-06
6.59894e-06
1.64039e-05
2.61869e-05
3.59469e-05
4.56962e-05
5.54652e-05
6.53101e-05
7.53223e-05
8.5639e-05
9.64575e-05
0.000108051
-0.000271564
-0.000272502
-0.000272494
-0.000272497
-0.000272206
-0.00027169
-0.000270951
-0.000269985
-0.000268793
-0.000267373
-0.000265725
-0.000263848
-0.000261742
-0.000259405
-0.000256837
-0.000254037
-0.000251004
-0.000247738
-0.000244237
-0.0002405
-0.000236526
-0.000232314
-0.000227864
-0.000223177
-0.000218251
-0.000213089
-0.000207692
-0.00020206
-0.000196195
-0.000190099
-0.000183776
-0.00017723
-0.000170464
-0.000163487
-0.000156304
-0.000148924
-0.000141357
-0.000133615
-0.000125711
-0.000117662
-0.000109484
-0.000101199
-9.2831e-05
-8.44044e-05
-7.59482e-05
-6.74938e-05
-5.90756e-05
-5.07306e-05
-4.2498e-05
-3.44176e-05
-2.65286e-05
-1.88681e-05
-1.14679e-05
-4.35116e-06
2.47303e-06
9.01715e-06
1.53248e-05
2.14827e-05
2.76358e-05
3.40058e-05
-0.000288117
-0.000289046
-0.000289059
-0.000289092
-0.000288847
-0.000288393
-0.000287729
-0.000286852
-0.000285764
-0.000284463
-0.000282948
-0.000281219
-0.000279275
-0.000277117
-0.000274742
-0.000272152
-0.000269345
-0.00026632
-0.000263078
-0.000259617
-0.000255935
-0.000252034
-0.000247913
-0.000243573
-0.000239015
-0.000234239
-0.000229249
-0.000224045
-0.00021863
-0.000213008
-0.000207183
-0.000201159
-0.000194943
-0.000188544
-0.000181969
-0.00017523
-0.00016834
-0.000161311
-0.000154163
-0.000146914
-0.000139587
-0.000132209
-0.00012481
-0.000117424
-0.000110087
-0.000102842
-9.57378e-05
-8.88264e-05
-8.21652e-05
-7.58157e-05
-6.98428e-05
-6.43134e-05
-5.92948e-05
-5.48512e-05
-5.10386e-05
-4.78979e-05
-4.54455e-05
-4.36613e-05
-4.24719e-05
-4.17303e-05
-0.00030501
-0.000305931
-0.000305964
-0.000306028
-0.00030583
-0.000305437
-0.000304849
-0.000304064
-0.000303081
-0.0003019
-0.000300521
-0.000298942
-0.000297164
-0.000295186
-0.000293009
-0.000290631
-0.000288053
-0.000285274
-0.000282295
-0.000279113
-0.000275728
-0.000272142
-0.000268354
-0.000264366
-0.000260179
-0.000255795
-0.000251216
-0.000246445
-0.000241485
-0.00023634
-0.000231015
-0.000225517
-0.000219854
-0.000214035
-0.00020807
-0.000201972
-0.000195756
-0.000189439
-0.000183041
-0.000176587
-0.000170104
-0.000163624
-0.000157182
-0.00015082
-0.000144585
-0.00013853
-0.000132718
-0.000127215
-0.0001221
-0.000117455
-0.000113374
-0.000109956
-0.000107307
-0.000105538
-0.000104758
-0.000105072
-0.000106569
-0.000109313
-0.000113322
-0.000118552
-0.000322228
-0.000323139
-0.000323192
-0.000323287
-0.000323136
-0.000322806
-0.000322295
-0.000321602
-0.000320727
-0.000319668
-0.000318426
-0.000317
-0.00031539
-0.000313596
-0.000311618
-0.000309456
-0.000307111
-0.000304581
-0.000301868
-0.000298969
-0.000295886
-0.000292618
-0.000289168
-0.000285536
-0.000281725
-0.000277736
-0.000273572
-0.000269238
-0.000264736
-0.000260071
-0.000255251
-0.000250281
-0.000245172
-0.000239934
-0.000234578
-0.00022912
-0.000223576
-0.000217966
-0.000212314
-0.000206646
-0.000200996
-0.000195398
-0.000189896
-0.000184538
-0.000179379
-0.000174485
-0.00016993
-0.000165798
-0.000162185
-0.000159197
-0.000156957
-0.000155598
-0.000155268
-0.000156129
-0.000158351
-0.000162109
-0.000167579
-0.000174923
-0.000184278
-0.00019573
-0.000339752
-0.000340653
-0.000340726
-0.000340852
-0.000340749
-0.000340482
-0.00034005
-0.00033945
-0.000338683
-0.000337749
-0.000336646
-0.000335374
-0.000333934
-0.000332327
-0.000330552
-0.000328609
-0.000326499
-0.000324222
-0.000321778
-0.000319166
-0.000316387
-0.000313443
-0.000310334
-0.000307062
-0.00030363
-0.00030004
-0.000296296
-0.000292401
-0.000288361
-0.00028418
-0.000279866
-0.000275427
-0.000270873
-0.000266216
-0.000261469
-0.000256648
-0.000251772
-0.000246864
-0.000241948
-0.000237057
-0.000232224
-0.000227492
-0.000222908
-0.000218526
-0.000214412
-0.00021064
-0.000207297
-0.000204481
-0.000202308
-0.000200908
-0.00020043
-0.000201045
-0.000202943
-0.000206339
-0.000211469
-0.000218587
-0.000227967
-0.000239885
-0.000254618
-0.000272413
-0.000357565
-0.000358455
-0.000358549
-0.000358706
-0.000358651
-0.000358447
-0.000358094
-0.000357589
-0.000356932
-0.000356123
-0.000355161
-0.000354046
-0.000352779
-0.00035136
-0.00034979
-0.000348069
-0.000346198
-0.000344177
-0.000342005
-0.000339684
-0.000337213
-0.000334595
-0.000331831
-0.000328923
-0.000325874
-0.000322687
-0.000319365
-0.000315914
-0.000312338
-0.000308643
-0.000304838
-0.000300931
-0.000296933
-0.000292857
-0.000288717
-0.000284531
-0.000280318
-0.000276104
-0.000271916
-0.000267787
-0.000263757
-0.000259869
-0.000256176
-0.00025274
-0.000249631
-0.000246934
-0.000244746
-0.000243181
-0.00024237
-0.000242465
-0.000243645
-0.000246113
-0.000250105
-0.000255887
-0.000263765
-0.000274078
-0.000287203
-0.000303548
-0.000323548
-0.000347642
-0.00037565
-0.000376528
-0.000376642
-0.000376831
-0.000376824
-0.000376685
-0.000376411
-0.000376002
-0.000375456
-0.000374773
-0.000373953
-0.000372997
-0.000371905
-0.000370677
-0.000369315
-0.000367819
-0.000366189
-0.000364425
-0.00036253
-0.000360502
-0.000358343
-0.000356054
-0.000353638
-0.000351098
-0.000348435
-0.000345654
-0.000342759
-0.000339754
-0.000336645
-0.000333439
-0.000330144
-0.00032677
-0.000323329
-0.000319833
-0.000316299
-0.000312743
-0.000309189
-0.000305661
-0.00030219
-0.000298811
-0.000295564
-0.000292498
-0.000289668
-0.00028714
-0.000284993
-0.000283317
-0.00028222
-0.000281826
-0.000282283
-0.000283764
-0.00028647
-0.000290638
-0.000296545
-0.000304511
-0.000314908
-0.000328161
-0.000344757
-0.000365245
-0.000390232
-0.000420379
-0.000393988
-0.000394853
-0.000394988
-0.000395208
-0.00039525
-0.000395175
-0.000394982
-0.000394668
-0.000394234
-0.00039368
-0.000393004
-0.000392208
-0.000391293
-0.000390258
-0.000389106
-0.000387836
-0.00038645
-0.000384948
-0.000383331
-0.000381599
-0.000379755
-0.000377799
-0.000375735
-0.000373565
-0.000371292
-0.00036892
-0.000366454
-0.000363898
-0.000361259
-0.000358544
-0.000355762
-0.000352923
-0.000350038
-0.000347123
-0.000344191