0 	-4.08928e-08
1.57135 	-3.11553e-05
3.1427 	-6.412e-05
4.71405 	-0.00222328
6.28539 	-0.00680885
7.85674 	-0.00942285
9.42809 	-0.00683381
10.9994 	-0.0038335
12.5708 	0.0156346
14.1421 	0.0498888
