/*--------------------------------*- C++ -*----------------------------------*\
  =========                 |
  \\      /  F ield         | OpenFOAM: The Open Source CFD Toolbox
   \\    /   O peration     | Website:  https://openfoam.org
    \\  /    A nd           | Version:  8
     \\/     M anipulation  |
\*---------------------------------------------------------------------------*/
FoamFile
{
    version     2.0;
    format      ascii;
    class       volScalarField;
    location    "54";
    object      p;
}
// * * * * * * * * * * * * * * * * * * * * * * * * * * * * * * * * * * * * * //

dimensions      [0 2 -2 0 0 0 0];

internalField   nonuniform List<scalar> 
12504
(
0.303021
0.29995
0.293493
0.283638
0.270656
0.254898
0.236752
0.216655
0.195099
0.172602
0.149677
0.126799
0.104383
0.0827712
0.0622278
0.042949
0.0250744
0.00869962
-0.00611287
-0.0193269
-0.0309276
-0.0409194
-0.0493237
-0.0561801
-0.0615438
-0.0654902
-0.0681081
-0.0695071
-0.0698044
-0.0691372
-0.0676381
-0.0654589
-0.0627283
-0.0595969
-0.0561669
-0.0525746
-0.0488734
-0.0451795
-0.0414792
-0.0378757
-0.0342762
-0.0307941
-0.0272526
-0.0238144
-0.0202199
-0.0167289
-0.0130029
-0.00942992
-0.00559398
-0.00200329
0.30523
0.302093
0.29549
0.285416
0.272153
0.256068
0.237563
0.217097
0.195181
0.172353
0.149143
0.126034
0.103445
0.0817121
0.0610931
0.0417736
0.0238836
0.00751121
-0.00728623
-0.020476
-0.0320451
-0.041999
-0.0503589
-0.0571641
-0.0624692
-0.0663494
-0.0688935
-0.0702121
-0.0704235
-0.0696669
-0.068077
-0.0658088
-0.0629933
-0.0597849
-0.0562869
-0.0526394
-0.0488949
-0.045173
-0.0414559
-0.0378501
-0.0342545
-0.0307866
-0.0272572
-0.0238362
-0.0202475
-0.0167654
-0.0130303
-0.00945484
-0.00560071
-0.00200778
0.309706
0.306428
0.299529
0.289008
0.275172
0.258417
0.239181
0.21796
0.195311
0.171812
0.148023
0.12445
0.101516
0.0795476
0.0587837
0.0393886
0.0214727
0.00510914
-0.00965526
-0.0227944
-0.034299
-0.0441759
-0.0524461
-0.0591478
-0.0643346
-0.0680809
-0.0704758
-0.0716312
-0.071668
-0.0707296
-0.0689553
-0.0665062
-0.0635183
-0.0601531
-0.0565178
-0.0527583
-0.0489278
-0.0451499
-0.0414021
-0.0377927
-0.0342096
-0.0307715
-0.0272726
-0.0238861
-0.0203157
-0.0168456
-0.0131002
-0.00950934
-0.00562593
-0.00201304
0.316548
0.31305
0.305692
0.294481
0.279757
0.261963
0.24159
0.2192
0.195416
0.170882
0.146211
0.121939
0.0984945
0.0761867
0.055222
0.035729
0.0177872
0.00144681
-0.0132607
-0.0263189
-0.0377233
-0.0474823
-0.055616
-0.0621605
-0.067167
-0.070709
-0.0728753
-0.0737804
-0.0735488
-0.0723306
-0.0702721
-0.0675441
-0.064291
-0.0606849
-0.0568392
-0.0529096
-0.0489499
-0.0450903
-0.0413007
-0.0376926
-0.0341364
-0.0307525
-0.0273085
-0.0239824
-0.0204464
-0.0169976
-0.0132358
-0.00961698
-0.00568201
-0.0020266
0.325912
0.32211
0.314115
0.301942
0.28598
0.266732
0.244769
0.220743
0.195376
0.169409
0.143533
0.118325
0.0942165
0.0714854
0.0502859
0.0306926
0.0127408
-0.0035501
-0.0181684
-0.0311093
-0.0423741
-0.0519719
-0.05992
-0.0662508
-0.0710119
-0.0742743
-0.0761269
-0.0766872
-0.0760848
-0.0744792
-0.0720267
-0.0689122
-0.065292
-0.0613534
-0.0572188
-0.0530577
-0.0489254
-0.0449614
-0.0411252
-0.0375321
-0.0340282
-0.0307352
-0.0273832
-0.0241554
-0.0206786
-0.0172672
-0.0134823
-0.00981677
-0.00579374
-0.0020594
0.338021
0.333817
0.324982
0.31154
0.293936
0.272759
0.248679
0.222475
0.195011
0.167164
0.139731
0.11335
0.0884454
0.0652393
0.0438047
0.0241376
0.00621414
-0.00998484
-0.0244704
-0.0372507
-0.0483319
-0.0577219
-0.0654327
-0.0714903
-0.0759357
-0.078837
-0.0802819
-0.0803918
-0.0793033
-0.0771884
-0.0742173
-0.0705942
-0.0664915
-0.0621176
-0.0576075
-0.0531491
-0.0488008
-0.0447142
-0.0408356
-0.037285
-0.0338757
-0.0307298
-0.0275264
-0.0244529
-0.0210738
-0.0177263
-0.0139119
-0.0101715
-0.006003
-0.00212882
0.353163
0.348445
0.338538
0.323468
0.303752
0.280081
0.253256
0.224228
0.194057
0.16381
0.134439
0.106653
0.0808558
0.0571727
0.0355516
0.0158773
-0.00195045
-0.0179945
-0.0322902
-0.0448582
-0.0557074
-0.0648404
-0.0722594
-0.0779797
-0.0820332
-0.0844822
-0.0854127
-0.0849509
-0.0832424
-0.0804757
-0.0768402
-0.0725655
-0.0678462
-0.0629182
-0.0579339
-0.053106
-0.0484983
-0.0442777
-0.0403749
-0.0369135
-0.0336664
-0.0307516
-0.0277829
-0.0249472
-0.0217288
-0.0184819
-0.0146313
-0.0107778
-0.00637808
-0.00226342
0.371708
0.366347
0.355097
0.337979
0.315592
0.288743
0.258403
0.225754
0.192127
0.158866
0.127136
0.0977351
0.0710098
0.0469239
0.025234
0.0056712
-0.0119563
-0.0277576
-0.0417909
-0.0540867
-0.0646514
-0.0734761
-0.080546
-0.08586
-0.0894364
-0.0913292
-0.0916211
-0.0904438
-0.0879547
-0.0843645
-0.0798883
-0.0747896
-0.0692928
-0.0636693
-0.0580957
-0.0528169
-0.0479071
-0.0435509
-0.039662
-0.0363647
-0.0333836
-0.0308232
-0.0282187
-0.0257425
-0.0227803
-0.0196922
-0.0158034
-0.0117828
-0.00702406
-0.00250706
0.39412
0.387961
0.375057
0.355391
0.329657
0.298788
0.263967
0.226687
0.188659
0.151629
0.117078
0.0859033
0.0583236
0.034028
0.0124835
-0.0067823
-0.0240618
-0.0395045
-0.0531863
-0.0651424
-0.0753682
-0.0838322
-0.090493
-0.0953256
-0.0983282
-0.0995426
-0.0990466
-0.0969784
-0.0935108
-0.088884
-0.0833488
-0.0772135
-0.070742
-0.064251
-0.0579495
-0.0521261
-0.0468729
-0.0423928
-0.0385841
-0.0355633
-0.0330016
-0.0309728
-0.0289209
-0.0269784
-0.0244166
-0.0215771
-0.0176586
-0.0133946
-0.00809362
-0.00292349
0.420967
0.413833
0.398913
0.376103
0.346203
0.310254
0.26971
0.226489
0.182827
0.141083
0.1032
0.07019
0.0420124
0.0178875
-0.00315833
-0.0218559
-0.0385887
-0.0535269
-0.0667534
-0.0782979
-0.0881305
-0.0961823
-0.102372
-0.106639
-0.108955
-0.109344
-0.107877
-0.104699
-0.100004
-0.0940721
-0.0872019
-0.0797629
-0.0720707
-0.0645022
-0.0573042
-0.0508268
-0.0451901
-0.0406142
-0.0369867
-0.0344011
-0.032475
-0.0312207
-0.0299868
-0.0288175
-0.026866
-0.0244063
-0.0204919
-0.0158779
-0.00978668
-0.00359508
0.452941
0.44463
0.427285
0.400616
0.365551
0.323153
0.275255
0.224332
0.173397
0.125739
0.0839835
0.0492516
0.0210217
-0.00227208
-0.0222691
-0.0400099
-0.0559301
-0.0701821
-0.0828361
-0.0938975
-0.103288
-0.110878
-0.11653
-0.120138
-0.121635
-0.121019
-0.118352
-0.113788
-0.107551
-0.0999773
-0.091435
-0.0823531
-0.0731298
-0.0642291
-0.0559185
-0.0486639
-0.0426096
-0.0379834
-0.0346737
-0.0327287
-0.0317188
-0.0315477
-0.0314759
-0.031391
-0.030338
-0.0284364
-0.0245997
-0.0195112
-0.0123282
-0.00461421
0.490873
0.481165
0.460938
0.42957
0.388118
0.337471
0.280002
0.218895
0.158414
0.103353
0.0572725
0.0212952
-0.00598184
-0.0274049
-0.0455568
-0.0618008
-0.0765442
-0.0898725
-0.101817
-0.112323
-0.121227
-0.12831
-0.133356
-0.136198
-0.136718
-0.134884
-0.130745
-0.124457
-0.11629
-0.106662
-0.0960212
-0.0848946
-0.0737849
-0.0632911
-0.0535718
-0.0453785
-0.0388731
-0.0342584
-0.0314272
-0.0303574
-0.0305851
-0.0318477
-0.033337
-0.0346927
-0.0348827
-0.0337542
-0.0301232
-0.0244676
-0.0158899
-0.00605403
0.535736
0.524417
0.500813
0.463792
0.414462
0.353167
0.283069
0.208098
0.134666
0.0702795
0.0198162
-0.0160541
-0.0405136
-0.0584788
-0.0737164
-0.0877589
-0.100832
-0.112913
-0.123967
-0.13383
-0.142196
-0.148723
-0.153091
-0.155057
-0.154435
-0.151159
-0.145253
-0.136875
-0.126357
-0.114222
-0.101021
-0.0873983
-0.0739639
-0.0613214
-0.050222
-0.0409336
-0.0338796
-0.0293054
-0.0270903
-0.0271037
-0.02886
-0.0318788
-0.0353127
-0.0384584
-0.0402535
-0.0401279
-0.0369016
-0.030639
-0.0204529
-0.00791091
0.588646
0.575554
0.548055
0.504365
0.445304
0.370169
0.283156
0.188839
0.0971265
0.0205075
-0.0337133
-0.0662436
-0.0842214
-0.096132
-0.106981
-0.117917
-0.128681
-0.139096
-0.149024
-0.158116
-0.165869
-0.171782
-0.175415
-0.176427
-0.17455
-0.169687
-0.161765
-0.150974
-0.137773
-0.122767
-0.106618
-0.0901183
-0.0740276
-0.0591624
-0.0462343
-0.0357175
-0.0279901
-0.0233653
-0.0217782
-0.0229547
-0.0263723
-0.0313157
-0.036928
-0.0421062
-0.0458105
-0.0468855
-0.0443235
-0.0375167
-0.0257052
-0.0100574
0.650839
0.635945
0.604064
0.552729
0.481503
0.388238
0.27792
0.155916
0.0385935
-0.054583
-0.111235
-0.134128
-0.138757
-0.140167
-0.14429
-0.15078
-0.158403
-0.166686
-0.175246
-0.183435
-0.190514
-0.195813
-0.198754
-0.198877
-0.195873
-0.189408
-0.17939
-0.166194
-0.150285
-0.132324
-0.113106
-0.0935827
-0.0746854
-0.0573703
-0.0424525
-0.0305786
-0.0220864
-0.0172836
-0.0161301
-0.0183165
-0.0232546
-0.0300184
-0.0377455
-0.0449651
-0.0506972
-0.0531303
-0.0515052
-0.0443157
-0.0311032
-0.0122705
0.723618
0.707132
0.670638
0.610881
0.524187
0.406708
0.2625
0.0981948
-0.0518973
-0.164211
-0.219332
-0.222622
-0.203623
-0.188025
-0.181773
-0.181733
-0.185197
-0.191028
-0.198191
-0.205558
-0.212128
-0.217079
-0.219684
-0.219333
-0.215486
-0.2078
-0.196318
-0.181269
-0.163118
-0.142612
-0.120682
-0.0984206
-0.0769158
-0.0572594
-0.040363
-0.0269977
-0.0175839
-0.0123612
-0.0113433
-0.0141369
-0.0201508
-0.0283327
-0.0377833
-0.0467754
-0.0543655
-0.0581906
-0.0576886
-0.0503234
-0.0361233
-0.01434
0.808242
0.79073
0.750234
0.681843
0.57567
0.424693
0.228297
-0.00405994
-0.196789
-0.316484
-0.353403
-0.322194
-0.269368
-0.231297
-0.211582
-0.203461
-0.20256
-0.206375
-0.212707
-0.219792
-0.226379
-0.231524
-0.23437
-0.234139
-0.230235
-0.222372
-0.210385
-0.194433
-0.174998
-0.152886
-0.129115
-0.104881
-0.0813949
-0.0598546
-0.0412733
-0.0264948
-0.0160394
-0.0101567
-0.00883592
-0.011706
-0.0181496
-0.027109
-0.0376211
-0.047875
-0.0568714
-0.0619135
-0.0624796
-0.055163
-0.0404571
-0.0161321
0.905552
0.888184
0.84609
0.77037
0.641895
0.444338
0.161492
-0.165667
-0.353106
-0.463647
-0.464133
-0.394592
-0.310623
-0.255851
-0.22811
-0.215053
-0.211596
-0.214136
-0.219741
-0.226475
-0.233058
-0.238479
-0.24181
-0.242245
-0.238966
-0.231659
-0.220053
-0.204242
-0.184681
-0.162165
-0.137738
-0.112633
-0.0881312
-0.0654914
-0.0457989
-0.0299488
-0.0185219
-0.0118224
-0.00981856
-0.0122186
-0.0183977
-0.0273713
-0.0381245
-0.048924
-0.0586307
-0.0645042
-0.065849
-0.0587339
-0.043905
-0.0175054
1.01525
1.00025
0.961588
0.883075
0.735359
0.478493
0.141177
-0.255822
-0.548409
-0.633013
-0.592891
-0.453416
-0.335775
-0.269522
-0.22883
-0.214975
-0.211885
-0.214789
-0.220583
-0.227428
-0.234167
-0.239867
-0.243636
-0.244603
-0.242225
-0.235821
-0.225154
-0.210272
-0.191567
-0.169772
-0.14589
-0.121121
-0.0967349
-0.073982
-0.0539614
-0.0375801
-0.0254537
-0.0179228
-0.015012
-0.0164643
-0.0217168
-0.0298967
-0.0399923
-0.0504523
-0.0600056
-0.0661185
-0.0677432
-0.0608948
-0.0461284
-0.018213
1.13499
1.12612
1.09811
1.02791
0.87387
0.58714
0.151422
-0.304401
-0.639759
-0.345985
-0.271025
-0.233654
-0.214965
-0.212091
-0.21448
-0.219677
-0.225952
-0.23225
-0.237707
-0.241497
-0.242818
-0.241035
-0.235571
-0.226134
-0.212712
-0.195622
-0.1755
-0.153249
-0.129965
-0.106824
-0.084994
-0.0655179
-0.0492642
-0.0368437
-0.0286106
-0.024677
-0.0248024
-0.0285127
-0.0350843
-0.043583
-0.0526943
-0.0611225
-0.0666766
-0.0679431
-0.0612718
-0.0465685
-0.0179432
1.25983
1.26183
1.25246
1.21227
1.06267
0.748015
0.259414
-0.265138
-0.231355
-0.215244
-0.209626
-0.211724
-0.21627
-0.221841
-0.227514
-0.232519
-0.236114
-0.237583
-0.236316
-0.231832
-0.223821
-0.212246
-0.197351
-0.179662
-0.159942
-0.139129
-0.118239
-0.0982917
-0.0802094
-0.0647677
-0.0525225
-0.0437763
-0.0388053
-0.0372918
-0.0388955
-0.043073
-0.0490208
-0.0557062
-0.0619605
-0.0659778
-0.0661523
-0.0593321
-0.0446498
-0.0164888
1.38222
1.39823
1.41925
1.42416
1.30411
0.996216
-0.228494
-0.210127
-0.204187
-0.206304
-0.210409
-0.215422
-0.220528
-0.225061
-0.228401
-0.229947
-0.229164
-0.225688
-0.219243
-0.209789
-0.197511
-0.182821
-0.166323
-0.148762
-0.130953
-0.113713
-0.0977879
-0.0838042
-0.072225
-0.0633567
-0.0572136
-0.0537911
-0.0527956
-0.0538222
-0.0563032
-0.0595009
-0.0624918
-0.0638987
-0.0621532
-0.0547253
-0.0401507
-0.0139433
1.49078
1.52294
1.57901
1.6392
1.57027
1.33269
-0.201471
-0.196391
-0.19882
-0.202833
-0.207509
-0.21216
-0.21626
-0.219331
-0.220904
-0.220601
-0.218151
-0.213361
-0.206204
-0.196821
-0.185518
-0.172736
-0.159014
-0.144933
-0.13107
-0.11794
-0.105968
-0.0954552
-0.086585
-0.0794104
-0.0738937
-0.0698757
-0.0671253
-0.0653311
-0.064076
-0.0627735
-0.0605007
-0.0560219
-0.047531
-0.0331986
-0.0106554
1.57329
1.6196
1.70849
1.82268
1.82423
1.70528
-0.195298
-0.187536
-0.190655
-0.194791
-0.199226
-0.203447
-0.207089
-0.209833
-0.211381
-0.21152
-0.210082
-0.206971
-0.202194
-0.195862
-0.188181
-0.179436
-0.16995
-0.160057
-0.150059
-0.140204
-0.130664
-0.121537
-0.112865
-0.104661
-0.0968948
-0.0895263
-0.0825172
-0.075822
-0.069354
-0.0629119
-0.0560716
-0.0481751
-0.0382213
-0.0246486
-0.00683686
1.6186
1.67329
1.78205
1.9281
2.00422
-0.177494
-0.180089
-0.183631
-0.187678
-0.191707
-0.195354
-0.198407
-0.200708
-0.20215
-0.20265
-0.202168
-0.200705
-0.198308
-0.195068
-0.191104
-0.186545
-0.181502
-0.176048
-0.170195
-0.163892
-0.157032
-0.149481
-0.141128
-0.13188
-0.121749
-0.110813
-0.0992396
-0.0872571
-0.0751156
-0.0630188
-0.0510777
-0.0393353
-0.0276908
-0.0153646
-0.00288195
1.62021
1.675
1.78404
1.93063
2.04407
-0.167836
-0.175589
-0.178938
-0.182438
-0.185718
-0.188534
-0.19081
-0.192534
-0.193745
-0.194506
-0.194897
-0.195005
-0.19492
-0.194713
-0.194422
-0.194027
-0.19343
-0.192442
-0.190781
-0.18809
-0.183971
-0.17804
-0.170007
-0.159691
-0.147131
-0.132533
-0.116283
-0.0989017
-0.0809888
-0.0631611
-0.0460658
-0.0304339
-0.0170899
-0.00628882
0.000862657
1.57802
1.62465
1.7143
1.82992
1.93682
-0.168307
-0.17455
-0.176881
-0.179288
-0.181441
-0.183167
-0.184488
-0.185513
-0.186403
-0.187345
-0.188524
-0.190104
-0.192207
-0.194886
-0.198096
-0.201676
-0.205326
-0.208606
-0.21095
-0.211703
-0.210184
-0.205761
-0.197971
-0.186554
-0.171566
-0.153346
-0.132517
-0.109912
-0.0865034
-0.0633212
-0.0415177
-0.0223869
-0.00754558
0.00178132
0.00424836
1.49845
1.53106
1.58826
1.6505
1.70896
1.64433
-0.175449
-0.176008
-0.176722
-0.177662
-0.178459
-0.178958
-0.179249
-0.179535
-0.180079
-0.18117
-0.18308
-0.186031
-0.190165
-0.195507
-0.201932
-0.209143
-0.216654
-0.223794
-0.229736
-0.233551
-0.234296
-0.231118
-0.223435
-0.210882
-0.193547
-0.171905
-0.146824
-0.119458
-0.0911702
-0.063386
-0.0377199
-0.0158468
7.92874e-05
0.00825589
0.00720346
1.39251
1.40906
1.43136
1.4386
1.44573
1.28746
-0.18095
-0.178043
-0.177069
-0.176531
-0.175992
-0.175316
-0.174648
-0.17427
-0.174536
-0.175814
-0.178438
-0.182672
-0.188659
-0.196385
-0.205646
-0.216017
-0.226844
-0.237252
-0.246189
-0.252499
-0.255015
-0.252706
-0.244909
-0.231177
-0.211643
-0.186943
-0.158177
-0.126796
-0.0945462
-0.0631863
-0.0347464
-0.0110874
0.00532208
0.0126491
0.00881755
1.27238
1.27493
1.26686
1.22895
1.19125
0.881729
0.546301
-0.196391
-0.186187
-0.179297
-0.176724
-0.174937
-0.173287
-0.17165
-0.170225
-0.169372
-0.169513
-0.171078
-0.174442
-0.179885
-0.187531
-0.19732
-0.208963
-0.221918
-0.235385
-0.248318
-0.25949
-0.267569
-0.27124
-0.269379
-0.261127
-0.246159
-0.224671
-0.197424
-0.16576
-0.131361
-0.0963064
-0.0625814
-0.0325589
-0.00809312
0.0081448
0.014779
0.00950241
1.14943
1.14106
1.11422
1.04605
0.895156
0.676583
0.192666
-0.201011
-0.239218
-0.20584
-0.185634
-0.178934
-0.175049
-0.172338
-0.169906
-0.167622
-0.165738
-0.164672
-0.164903
-0.166898
-0.17105
-0.177626
-0.186718
-0.198203
-0.211706
-0.226584
-0.241911
-0.256514
-0.269036
-0.278049
-0.282147
-0.280138
-0.271192
-0.255
-0.231886
-0.202746
-0.169142
-0.1329
-0.0963601
-0.0615686
-0.0311572
-0.0067596
0.00879957
0.014807
0.00924766
1.03122
1.01666
0.978985
0.902124
0.756906
0.503589
0.167966
-0.309827
-0.546051
-0.436766
-0.308379
-0.24544
-0.20003
-0.184502
-0.176499
-0.171941
-0.16869
-0.16583
-0.163256
-0.161256
-0.160286
-0.160853
-0.163433
-0.16841
-0.176016
-0.186292
-0.199045
-0.213819
-0.229878
-0.246209
-0.261541
-0.274455
-0.283509
-0.287291
-0.284602
-0.274708
-0.257384
-0.233101
-0.202867
-0.168415
-0.13161
-0.0949573
-0.0603889
-0.0306726
-0.00707334
0.00756993
0.0131216
0.00813782
0.922743
0.905732
0.864449
0.790016
0.66344
0.468367
0.188703
-0.134927
-0.41572
-0.542658
-0.500989
-0.391041
-0.278273
-0.225299
-0.198034
-0.182799
-0.173867
-0.168431
-0.164627
-0.16151
-0.15892
-0.157117
-0.156539
-0.15767
-0.160956
-0.16674
-0.175202
-0.186318
-0.199826
-0.215193
-0.231618
-0.248035
-0.263116
-0.275435
-0.283726
-0.286468
-0.282664
-0.271707
-0.253496
-0.22866
-0.198265
-0.164146
-0.128094
-0.0926372
-0.0594709
-0.0313248
-0.00907004
0.00466066
0.010113
0.00640843
0.826394
0.809167
0.769312
0.701912
0.597134
0.447929
0.253642
0.0237271
-0.166871
-0.284981
-0.32104
-0.289817
-0.237629
-0.200195
-0.179991
-0.169195
-0.162925
-0.159191
-0.156744
-0.154846
-0.153365
-0.15259
-0.152988
-0.155049
-0.159201
-0.16575
-0.174831
-0.18636
-0.200024
-0.215249
-0.231193
-0.246785
-0.260681
-0.271687
-0.278324
-0.279555
-0.274433
-0.262542
-0.243915
-0.219307
-0.189792
-0.157193
-0.123134
-0.0900067
-0.059212
-0.0332462
-0.0126627
0.000308066
0.00612553
0.00430168
0.742521
0.726261
0.690263
0.631268
0.545599
0.429406
0.286664
0.123988
-0.0245632
-0.13551
-0.189636
-0.192447
-0.173324
-0.157425
-0.149941
-0.147057
-0.145726
-0.14511
-0.144932
-0.144982
-0.145291
-0.146165
-0.14805
-0.151394
-0.156577
-0.163854
-0.173312
-0.184833
-0.19808
-0.212488
-0.227242
-0.241326
-0.253236
-0.262206
-0.266992
-0.266603
-0.260327
-0.247945
-0.229612
-0.206139
-0.178546
-0.148522
-0.117473
-0.0875027
-0.0597348
-0.0362764
-0.0174691
-0.00505623
0.00154492
0.00202679
0.670327
0.655614
0.624113
0.573367
0.502906
0.410589
0.301326
0.180466
0.0642919
-0.027827
-0.0836203
-0.105897
-0.110012
-0.110677
-0.113372
-0.117342
-0.12114
-0.124488
-0.127564
-0.130484
-0.133379
-0.136533
-0.140344
-0.145216
-0.151487
-0.159375
-0.168942
-0.180062
-0.192413
-0.205477
-0.218552
-0.231061
-0.240367
-0.247202
-0.25018
-0.248464
-0.241547
-0.229356
-0.212127
-0.19064
-0.165815
-0.139106
-0.111688
-0.0852909
-0.0608116
-0.0399046
-0.0227904
-0.01075
-0.00312374
-0.000192902
0.608592
0.595643
0.568437
0.525203
0.466722
0.392299
0.306068
0.212589
0.121722
0.0458963
-0.00762539
-0.0395394
-0.0568895
-0.0679758
-0.0775458
-0.0865069
-0.0944874
-0.101454
-0.107685
-0.113426
-0.118869
-0.124269
-0.129957
-0.136273
-0.143498
-0.151812
-0.161255
-0.171705
-0.182875
-0.194278
-0.205279
-0.215124
-0.223149
-0.228284
-0.229853
-0.227337
-0.220395
-0.209039
-0.193539
-0.174576
-0.152944
-0.129813
-0.106152
-0.0832992
-0.061986
-0.0434371
-0.0278109
-0.0160114
-0.00733793
-0.00212427
0.556039
0.544832
0.521456
0.484789
0.435908
0.375151
0.305645
0.231299
0.158495
0.0947087
0.0448075
0.00947728
-0.0144058
-0.031654
-0.0458908
-0.0585164
-0.0697142
-0.0795843
-0.0884048
-0.0964617
-0.103987
-0.111215
-0.118417
-0.125865
-0.133783
-0.14231
-0.15147
-0.161148
-0.171105
-0.180909
-0.190015
-0.197631
-0.204492
-0.208299
-0.208909
-0.206059
-0.199531
-0.189368
-0.175836
-0.159488
-0.140987
-0.121231
-0.101018
-0.0813382
-0.0628008
-0.0462766
-0.0318894
-0.0202678
-0.010705
-0.003611
0.511455
0.501835
0.481787
0.450694
0.409591
0.359356
0.30234
0.241704
0.181695
0.127091
0.0814477
0.0458997
0.0190789
-0.00180195
-0.019251
-0.034571
-0.0481725
-0.0602523
-0.0710797
-0.0809429
-0.0900853
-0.0987259
-0.107086
-0.115381
-0.123784
-0.132399
-0.14124
-0.150209
-0.159113
-0.167616
-0.175323
-0.181848
-0.186976
-0.189685
-0.189682
-0.18678
-0.180844
-0.171916
-0.16024
-0.146244
-0.130477
-0.113608
-0.0962935
-0.0792513
-0.0629927
-0.0481245
-0.0347424
-0.0232931
-0.0130921
-0.00462489
0.473741
0.465498
0.448294
0.42184
0.387047
0.344968
0.297416
0.246852
0.196273
0.148955
0.107523
0.0731025
0.0451907
0.0222514
0.00267769
-0.0145552
-0.0299119
-0.0436463
-0.0560161
-0.0672874
-0.0776922
-0.0874301
-0.096685
-0.105628
-0.114393
-0.123058
-0.131631
-0.140033
-0.148109
-0.155609
-0.162241
-0.167717
-0.171696
-0.173629
-0.173258
-0.170436
-0.165084
-0.157242
-0.147128
-0.135066
-0.121512
-0.106959
-0.0919493
-0.0770013
-0.0625386
-0.0489889
-0.0364175
-0.0251657
-0.0145868
-0.00523549
0.441934
0.434854
0.420046
0.397403
0.367717
0.332014
0.291737
0.248787
0.205389
0.163889
0.126228
0.0934166
0.0654204
0.0414697
0.0205968
0.00206107
-0.0145638
-0.0295404
-0.0431026
-0.0554823
-0.0668864
-0.0774928
-0.0874568
-0.096916
-0.105975
-0.114695
-0.123079
-0.131064
-0.138527
-0.145282
-0.151103
-0.15575
-0.158946
-0.160354
-0.159764
-0.157059
-0.152203
-0.145239
-0.136358
-0.125809
-0.11397
-0.101212
-0.0879779
-0.0746504
-0.0615731
-0.0490619
-0.0371482
-0.0261255
-0.0153857
-0.00554884
0.415217
0.4091
0.396284
0.37675
0.351183
0.320505
0.285886
0.248809
0.210969
0.174104
0.139685
0.108605
0.0810798
0.0567936
0.0352036
0.0158131
-0.00171952
-0.0176278
-0.0321119
-0.0453658
-0.0575668
-0.0688697
-0.0794061
-0.0892889
-0.0986014
-0.107391
-0.115659
-0.123357
-0.130385
-0.136602
-0.141833
-0.145876
-0.148533
-0.149578
-0.148852
-0.146263
-0.141806
-0.135526
-0.127591
-0.118201
-0.107666
-0.0962754
-0.0843889
-0.0723016
-0.0602843
-0.0485907
-0.0372161
-0.0264449
-0.0157003
-0.00566509
0.392904
0.387576
0.376395
0.359381
0.337123
0.310421
0.280234
0.247731
0.214232
0.181067
0.149391
0.119993
0.0932075
0.0689855
0.0470633
0.0271398
0.00897156
-0.00762687
-0.0228172
-0.0367566
-0.0495923
-0.0614557
-0.0724583
-0.0826929
-0.0922271
-0.101099
-0.109307
-0.116814
-0.123541
-0.129376
-0.134183
-0.137802
-0.140087
-0.140881
-0.140071
-0.137589
-0.133447
-0.127695
-0.12048
-0.111968
-0.102418
-0.0920629
-0.0811949
-0.0700541
-0.0588483
-0.0478007
-0.0368717
-0.0263596
-0.0157092
-0.00566252
0.374434
0.369742
0.359889
0.3449
0.325285
0.301725
0.275012
0.246085
0.21599
0.185783
0.1564
0.128535
0.102578
0.0786333
0.0566232
0.036395
0.0177972
0.000697735
-0.0150263
-0.029498
-0.0428358
-0.0551487
-0.06653
-0.0770563
-0.0867829
-0.0957397
-0.103926
-0.111311
-0.117832
-0.1234
-0.127906
-0.131227
-0.133257
-0.133882
-0.133025
-0.130636
-0.126743
-0.121395
-0.114727
-0.10688
-0.098073
-0.0885024
-0.0784044
-0.0679864
-0.0574035
-0.046868
-0.0363088
-0.0260489
-0.0155464
-0.00559634
0.359348
0.355164
0.346372
0.332993
0.315466
0.294372
0.270372
0.244232
0.216803
0.188947
0.161445
0.134917
0.109767
0.0861949
0.0642417
0.0438647
0.0249896
0.00753444
-0.00858679
-0.0234661
-0.0371964
-0.0498658
-0.0615514
-0.0723166
-0.0822066
-0.0912455
-0.0994328
-0.106743
-0.113124
-0.118506
-0.122801
-0.125911
-0.127769
-0.128284
-0.127403
-0.125096
-0.121396
-0.11636
-0.110106
-0.102763
-0.0945151
-0.085537
-0.0760203
-0.0661535
-0.0560492
-0.045919
-0.0356657
-0.0256391
-0.0153051
-0.00550283
0.34728
0.343495
0.335533
0.32341
0.307506
0.28832
0.26641
0.242418
0.217052
0.191036
0.165044
0.139632
0.11521
0.0920263
0.0702039
0.0497769
0.030732
0.0130308
-0.00338011
-0.0185659
-0.0325971
-0.0455438
-0.0574692
-0.0684257
-0.0784504
-0.0875631
-0.095763
-0.103029
-0.109318
-0.114572
-0.118721
-0.121682
-0.123429
-0.123872
-0.12298
-0.120741
-0.117192
-0.112392
-0.10645
-0.0994852
-0.0916564
-0.0831225
-0.074042
-0.0645922
-0.0548531
-0.0450403
-0.0350359
-0.0252145
-0.0150463
-0.00540471
0.337945
0.334461
0.32713
0.315957
0.301278
0.283528
0.263189
0.24081
0.216999
0.192385
0.167561
0.143041
0.119227
0.0963994
0.0747309
0.0543092
0.0351669
0.0173009
0.000684711
-0.0147248
-0.0289798
-0.0421357
-0.054244
-0.0653484
-0.0754798
-0.0846545
-0.0928714
-0.100112
-0.106342
-0.111512
-0.115563
-0.118421
-0.120097
-0.120492
-0.119597
-0.117412
-0.113977
-0.109354
-0.103642
-0.0969551
-0.0894334
-0.0812259
-0.0724661
-0.0633252
-0.0538592
-0.0442887
-0.0344807
-0.0248296
-0.0148086
-0.00531567
0.331124
0.327856
0.320979
0.310489
0.296688
0.279965
0.260747
0.239521
0.216825
0.193223
0.169253
0.145398
0.122053
0.0995159
0.0779889
0.0575962
0.0384027
0.0204314
0.00367636
-0.0118886
-0.0263018
-0.0396072
-0.0518476
-0.0630598
-0.0732704
-0.082493
-0.0907264
-0.0979546
-0.104148
-0.109265
-0.113262
-0.116101
-0.117682
-0.118038
-0.117143
-0.114998
-0.111646
-0.107148
-0.101598
-0.0951071
-0.087801
-0.0798229
-0.0712887
-0.0623665
-0.0530954
-0.0437005
-0.0340386
-0.0245184
-0.0146156
-0.00524369
0.32666
0.323532
0.316948
0.306899
0.293665
0.277603
0.259108
0.238624
0.216649
0.193703
0.170293
0.146879
0.123853
0.101518
0.0800973
0.0597354
0.0405178
0.0224848
0.00564445
-0.0100183
-0.0245323
-0.037934
-0.05026
-0.0615427
-0.0718056
-0.0810606
-0.0893067
-0.096529
-0.102701
-0.107787
-0.111746
-0.114537
-0.116099
-0.116437
-0.115543
-0.113426
-0.110127
-0.10571
-0.100264
-0.0938973
-0.0867284
-0.0788962
-0.070506
-0.0617238
-0.0525783
-0.0432979
-0.033733
-0.0243012
-0.0144812
-0.00519236
0.324457
0.321394
0.314954
0.305123
0.292165
0.276428
0.258286
0.238166
0.216544
0.193921
0.170787
0.147593
0.124727
0.102497
0.081132
0.0607886
0.041562
0.0235008
0.00661993
-0.00908995
-0.0236531
-0.0371018
-0.0494699
-0.0607873
-0.0710761
-0.0803475
-0.0886003
-0.0958204
-0.101983
-0.107053
-0.110993
-0.113762
-0.115316
-0.115647
-0.114755
-0.112651
-0.109378
-0.105
-0.099605
-0.0932992
-0.0861971
-0.0784359
-0.0701159
-0.0614017
-0.0523184
-0.0430932
-0.0335786
-0.0241881
-0.0144153
-0.00516089
0.30302
0.299953
0.293495
0.283638
0.270656
0.254898
0.236752
0.216654
0.195098
0.172601
0.149676
0.126798
0.104382
0.0827705
0.0622272
0.0429486
0.0250741
0.00869935
-0.00611311
-0.0193272
-0.0309278
-0.0409196
-0.0493239
-0.0561803
-0.061544
-0.0654903
-0.0681081
-0.0695071
-0.0698044
-0.0691372
-0.0676379
-0.0654588
-0.062728
-0.0595969
-0.0561665
-0.0525747
-0.0488729
-0.0451798
-0.0414786
-0.0378765
-0.0342754
-0.0307954
-0.0272513
-0.0238164
-0.0202178
-0.0167319
-0.0129996
-0.00943421
-0.0055886
-0.00200864
0.305229
0.302096
0.295492
0.285416
0.272153
0.256068
0.237563
0.217096
0.19518
0.172352
0.149142
0.126033
0.103444
0.0817113
0.0610926
0.0417732
0.0238833
0.00751092
-0.0072865
-0.0204763
-0.0320454
-0.0419993
-0.0503591
-0.0571643
-0.0624694
-0.0663496
-0.0688936
-0.0702122
-0.0704235
-0.0696669
-0.0680768
-0.0658088
-0.062993
-0.0597848
-0.0562865
-0.0526394
-0.0488943
-0.0451733
-0.0414553
-0.0378508
-0.0342537
-0.0307879
-0.027256
-0.0238383
-0.0202455
-0.0167684
-0.0130271
-0.00945905
-0.00559539
-0.00201305
0.309705
0.306431
0.299531
0.289008
0.275172
0.258417
0.239181
0.217959
0.19531
0.17181
0.148022
0.124449
0.101515
0.0795468
0.0587832
0.0393882
0.0214724
0.00510885
-0.00965554
-0.0227947
-0.0342993
-0.0441762
-0.0524463
-0.0591481
-0.0643348
-0.0680811
-0.0704759
-0.0716313
-0.071668
-0.0707296
-0.0689551
-0.0665061
-0.063518
-0.060153
-0.0565173
-0.0527583
-0.0489272
-0.0451502
-0.0414014
-0.0377934
-0.0342087
-0.0307729
-0.0272713
-0.0238883
-0.0203136
-0.0168487
-0.0130969
-0.00951367
-0.00562047
-0.00201825
0.316547
0.313054
0.305695
0.294482
0.279757
0.261963
0.24159
0.219199
0.195414
0.17088
0.146209
0.121938
0.0984934
0.076186
0.0552216
0.0357287
0.017787
0.00144653
-0.013261
-0.0263191
-0.0377235
-0.0474826
-0.0556163
-0.0621608
-0.0671673
-0.0707092
-0.0728754
-0.0737805
-0.0735488
-0.0723306
-0.0702718
-0.067544
-0.0642906
-0.0606848
-0.0568387
-0.0529096
-0.0489492
-0.0450906
-0.0413
-0.0376934
-0.0341355
-0.030754
-0.0273071
-0.0239847
-0.0204443
-0.017001
-0.0132324
-0.00962155
-0.00567626
-0.00203178
0.325911
0.322114
0.314118
0.301943
0.28598
0.266733
0.244769
0.220741
0.195374
0.169407
0.143531
0.118323
0.0942153
0.0714848
0.0502856
0.0306924
0.0127406
-0.00355039
-0.0181687
-0.0311097
-0.0423744
-0.0519722
-0.0599203
-0.0662512
-0.0710122
-0.0742746
-0.0761271
-0.0766873
-0.0760848
-0.0744792
-0.0720264
-0.0689121
-0.0652915
-0.0613532
-0.0572182
-0.0530577
-0.0489247
-0.0449617
-0.0411243
-0.037533
-0.0340272
-0.030737
-0.0273818
-0.024158
-0.0206763
-0.0172709
-0.0134787
-0.00982172
-0.00578754
-0.00206458
0.33802
0.333821
0.324985
0.31154
0.293936
0.272759
0.248678
0.222473
0.195009
0.167161
0.139729
0.113348
0.0884443
0.0652388
0.0438046
0.0241375
0.00621391
-0.00998516
-0.0244707
-0.037251
-0.0483323
-0.0577224
-0.0654332
-0.0714907
-0.0759361
-0.0788373
-0.0802821
-0.0803919
-0.0793033
-0.0771883
-0.074217
-0.070594
-0.066491
-0.0621174
-0.0576068
-0.053149
-0.0487999
-0.0447145
-0.0408347
-0.037286
-0.0338746
-0.0307318
-0.0275249
-0.0244559
-0.0210714
-0.0177306
-0.0139081
-0.010177
-0.00599617
-0.00213408
0.353162
0.34845
0.338541
0.323469
0.303753
0.280081
0.253255
0.224226
0.194053
0.163806
0.134436
0.106651
0.0808547
0.0571726
0.0355518
0.0158773
-0.00195069
-0.0179949
-0.0322906
-0.0448587
-0.0557079
-0.064841
-0.07226
-0.0779803
-0.0820336
-0.0844826
-0.085413
-0.0849512
-0.0832424
-0.0804757
-0.0768398
-0.0725652
-0.0678455
-0.0629179
-0.057933
-0.0531058
-0.0484973
-0.044278
-0.0403737
-0.0369145
-0.0336652
-0.0307538
-0.0277813
-0.0249506
-0.0217262
-0.0184868
-0.0146271
-0.0107838
-0.00637042
-0.00226893
0.371707
0.366352
0.355101
0.337981
0.315592
0.288743
0.258401
0.22575
0.192122
0.158859
0.12713
0.0977319
0.0710089
0.0469245
0.0252349
0.00567147
-0.0119566
-0.0277581
-0.0417914
-0.0540872
-0.0646521
-0.0734768
-0.0805466
-0.0858607
-0.089437
-0.0913297
-0.0916214
-0.090444
-0.0879547
-0.0843644
-0.0798879
-0.0747894
-0.0692921
-0.063669
-0.0580947
-0.0528167
-0.0479059
-0.0435511
-0.0396606
-0.0363657
-0.033382
-0.0308254
-0.0282168
-0.0257463
-0.0227774
-0.0196976
-0.0157989
-0.0117895
-0.00701533
-0.0025131
0.394118
0.387967
0.375062
0.355393
0.329658
0.298789
0.263964
0.226681
0.18865
0.15162
0.117071
0.0858999
0.0583236
0.0340301
0.0124852
-0.00678193
-0.0240622
-0.0395049
-0.0531867
-0.0651429
-0.0753688
-0.0838329
-0.0904937
-0.0953263
-0.0983288
-0.0995431
-0.099047
-0.0969787
-0.0935108
-0.0888841
-0.0833485
-0.0772134
-0.0707413
-0.0642507
-0.0579484
-0.0521258
-0.0468715
-0.0423928
-0.0385823
-0.035564
-0.0329995
-0.0309748
-0.0289184
-0.0269822
-0.0244134
-0.0215831
-0.0176538
-0.0134019
-0.00808371
-0.0029305
0.420965
0.41384
0.39892
0.376105
0.346206
0.310254
0.269706
0.226479
0.182813
0.141068
0.103191
0.070188
0.0420162
0.0178929
-0.00315561
-0.0218556
-0.0385891
-0.053527
-0.0667533
-0.0782979
-0.0881308
-0.0961828
-0.102372
-0.10664
-0.108956
-0.109345
-0.107877
-0.104699
-0.100004
-0.0940724
-0.0872021
-0.0797632
-0.0720703
-0.0645022
-0.0573032
-0.0508266
-0.0451887
-0.0406142