/*--------------------------------*- C++ -*----------------------------------*\
  =========                 |
  \\      /  F ield         | OpenFOAM: The Open Source CFD Toolbox
   \\    /   O peration     | Website:  https://openfoam.org
    \\  /    A nd           | Version:  8
     \\/     M anipulation  |
\*---------------------------------------------------------------------------*/
FoamFile
{
    version     2.0;
    format      ascii;
    class       volScalarField;
    location    "0.24";
    object      p;
}
// * * * * * * * * * * * * * * * * * * * * * * * * * * * * * * * * * * * * * //

dimensions      [0 2 -2 0 0 0 0];

internalField   nonuniform List<scalar> 
400
(
-5.62254e-12
-3.62724e-06
-9.57645e-06
-1.47225e-05
-1.80477e-05
-2.01581e-05
-2.13433e-05
-2.17832e-05
-2.16484e-05
-2.10825e-05
-2.01637e-05
-1.89231e-05
-1.73859e-05
-1.55905e-05
-1.35802e-05
-1.13766e-05
-8.94206e-06
-6.1725e-06
-2.75806e-06
1.89585e-07
-4.33396e-06
-7.47717e-06
-1.1765e-05
-1.54518e-05
-1.81573e-05
-1.99948e-05
-2.10794e-05
-2.1522e-05
-2.14678e-05
-2.10434e-05
-2.03114e-05
-1.92922e-05
-1.80064e-05
-1.64925e-05
-1.47974e-05
-1.29449e-05
-1.08919e-05
-8.60155e-06
-6.21395e-06
-4.30774e-06
-1.00345e-05
-1.22554e-05
-1.4739e-05
-1.70825e-05
-1.90283e-05
-2.04706e-05
-2.13604e-05
-2.1724e-05
-2.1668e-05
-2.13017e-05
-2.06788e-05
-1.98134e-05
-1.87207e-05
-1.7437e-05
-1.60125e-05
-1.44823e-05
-1.28216e-05
-1.10623e-05
-9.61547e-06
-9.18464e-06
-1.46902e-05
-1.6294e-05
-1.77226e-05
-1.90616e-05
-2.03268e-05
-2.13624e-05
-2.20155e-05
-2.225e-05
-2.21465e-05
-2.18047e-05
-2.12695e-05
-2.05425e-05
-1.9626e-05
-1.85484e-05
-1.7361e-05
-1.61103e-05
-1.4793e-05
-1.34795e-05
-1.26869e-05
-1.31327e-05
-1.79191e-05
-1.94165e-05
-2.03002e-05
-2.09964e-05
-2.17514e-05
-2.24312e-05
-2.2847e-05
-2.29409e-05
-2.2785e-05
-2.24706e-05
-2.20276e-05
-2.14378e-05
-2.0687e-05
-1.97969e-05
-1.88184e-05
-1.77997e-05
-1.67395e-05
-1.57214e-05
-1.52913e-05
-1.61398e-05
-2.04151e-05
-2.18831e-05
-2.24807e-05
-2.27776e-05
-2.31616e-05
-2.35431e-05
-2.37417e-05
-2.37065e-05
-2.35089e-05
-2.32288e-05
-2.28757e-05
-2.24099e-05
-2.18038e-05
-2.10756e-05
-2.02765e-05
-1.94459e-05
-1.85666e-05
-1.77168e-05
-1.74626e-05
-1.85e-05
-2.24178e-05
-2.39148e-05
-2.43676e-05
-2.4402e-05
-2.4508e-05
-2.46455e-05
-2.46585e-05
-2.45132e-05
-2.4282e-05
-2.40313e-05
-2.37505e-05
-2.33816e-05
-2.28887e-05
-2.22918e-05
-2.1641e-05
-2.09602e-05
-2.02059e-05
-1.9442e-05
-1.92575e-05
-2.03922e-05
-2.40634e-05
-2.56216e-05
-2.60003e-05
-2.58525e-05
-2.57516e-05
-2.57018e-05
-2.55714e-05
-2.53429e-05
-2.5088e-05
-2.48596e-05
-2.46292e-05
-2.43255e-05
-2.39102e-05
-2.34095e-05
-2.28736e-05
-2.23075e-05
-2.16399e-05
-2.09188e-05
-2.07532e-05
-2.19396e-05
-2.54514e-05
-2.70649e-05
-2.73994e-05
-2.71263e-05
-2.68815e-05
-2.67018e-05
-2.64739e-05
-2.61923e-05
-2.59252e-05
-2.57123e-05
-2.55111e-05
-2.52422e-05
-2.48692e-05
-2.4429e-05
-2.39745e-05
-2.34934e-05
-2.28906e-05
-2.22019e-05
-2.20444e-05
-2.32571e-05
-2.66526e-05
-2.82964e-05
-2.86045e-05
-2.82541e-05
-2.79198e-05
-2.76589e-05
-2.73713e-05
-2.7059e-05
-2.67847e-05
-2.65766e-05
-2.63826e-05
-2.61197e-05
-2.57581e-05
-2.53475e-05
-2.49469e-05
-2.45305e-05
-2.39859e-05
-2.33404e-05
-2.32032e-05
-2.44266e-05
-2.76987e-05
-2.93512e-05
-2.96541e-05
-2.92713e-05
-2.88913e-05
-2.85841e-05
-2.82599e-05
-2.79261e-05
-2.76399e-05
-2.74198e-05
-2.72088e-05
-2.69257e-05
-2.65502e-05
-2.61471e-05
-2.57826e-05
-2.54215e-05
-2.49398e-05
-2.43576e-05
-2.42588e-05
-2.548e-05
-2.85912e-05
-3.02408e-05
-3.05669e-05
-3.01946e-05
-2.98037e-05
-2.94722e-05
-2.91211e-05
-2.87639e-05
-2.84529e-05
-2.82001e-05
-2.79481e-05
-2.76223e-05
-2.72149e-05
-2.6806e-05
-2.64695e-05
-2.61635e-05
-2.57558e-05
-2.5258e-05
-2.52116e-05
-2.64147e-05
-2.9326e-05
-3.09676e-05
-3.13472e-05
-3.10249e-05
-3.06509e-05
-3.03088e-05
-2.99328e-05
-2.95439e-05
-2.91923e-05
-2.88867e-05
-2.85732e-05
-2.81876e-05
-2.77368e-05
-2.73158e-05
-2.70054e-05
-2.6758e-05
-2.64352e-05
-2.60373e-05
-2.605e-05
-2.72193e-05
-2.99106e-05
-3.15423e-05
-3.2e-05
-3.17617e-05
-3.14287e-05
-3.10871e-05
-3.06867e-05
-3.0258e-05
-2.98519e-05
-2.94771e-05
-2.90867e-05
-2.86302e-05
-2.81293e-05
-2.76913e-05
-2.74027e-05
-2.72111e-05
-2.69741e-05
-2.66805e-05
-2.67556e-05
-2.78867e-05
-3.0358e-05
-3.19801e-05
-3.25299e-05
-3.24041e-05
-3.21368e-05
-3.18103e-05
-3.13914e-05
-3.09202e-05
-3.0451e-05
-2.99965e-05
-2.95203e-05
-2.89861e-05
-2.84289e-05
-2.79642e-05
-2.76813e-05
-2.7526e-05
-2.73578e-05
-2.71597e-05
-2.7303e-05
-2.84106e-05
-3.06701e-05
-3.22831e-05
-3.29304e-05
-3.29421e-05
-3.27693e-05
-3.2479e-05
-3.20532e-05
-3.15424e-05
-3.10069e-05
-3.04677e-05
-2.9902e-05
-2.92876e-05
-2.86679e-05
-2.81603e-05
-2.78542e-05
-2.77001e-05
-2.7571e-05
-2.74567e-05
-2.768e-05
-2.87841e-05
-3.08535e-05
-3.24579e-05
-3.32043e-05
-3.33692e-05
-3.33143e-05
-3.30792e-05
-3.26572e-05
-3.21097e-05
-3.15067e-05
-3.08824e-05
-3.02295e-05
-2.95375e-05
-2.88515e-05
-2.82837e-05
-2.7923e-05
-2.77357e-05
-2.7626e-05
-2.75988e-05
-2.79159e-05
-2.90193e-05
-3.08995e-05
-3.25254e-05
-3.34008e-05
-3.37293e-05
-3.37944e-05
-3.36172e-05
-3.32002e-05
-3.26152e-05
-3.1944e-05
-3.12348e-05
-3.04945e-05
-2.97201e-05
-2.8954e-05
-2.83017e-05
-2.78567e-05
-2.76124e-05
-2.75153e-05
-2.75849e-05
-2.80109e-05
-2.91402e-05
-3.07872e-05
-3.2501e-05
-3.36088e-05
-3.41517e-05
-3.43392e-05
-3.42091e-05
-3.37868e-05
-3.31553e-05
-3.24055e-05
-3.1596e-05
-3.0743e-05
-2.98494e-05
-2.89574e-05
-2.8171e-05
-2.7594e-05
-2.72509e-05
-2.71301e-05
-2.72699e-05
-2.78314e-05
-2.90436e-05
-3.05373e-05
-3.25377e-05
-3.40039e-05
-3.48384e-05
-3.51691e-05
-3.50778e-05
-3.46295e-05
-3.39213e-05
-3.30509e-05
-3.20837e-05
-3.10465e-05
-2.9954e-05
-2.88568e-05
-2.78597e-05
-2.70695e-05
-2.65386e-05
-2.63023e-05
-2.64476e-05
-2.71245e-05
-2.85132e-05
)
;

boundaryField
{
    movingWall
    {
        type            zeroGradient;
    }
    fixedWalls
    {
        type            zeroGradient;
    }
    left
    {
        type            cyclic;
    }
    right
    {
        type            cyclic;
    }
    frontAndBack
    {
        type            empty;
    }
}


// ************************************************************************* //
