/*--------------------------------*- C++ -*----------------------------------*\
  =========                 |
  \\      /  F ield         | OpenFOAM: The Open Source CFD Toolbox
   \\    /   O peration     | Website:  https://openfoam.org
    \\  /    A nd           | Version:  8
     \\/     M anipulation  |
\*---------------------------------------------------------------------------*/
FoamFile
{
    version     2.0;
    format      ascii;
    class       volVectorField;
    location    "0.24";
    object      U;
}
// * * * * * * * * * * * * * * * * * * * * * * * * * * * * * * * * * * * * * //

dimensions      [0 1 -1 0 0 0 0];

internalField   nonuniform List<vector> 
400
(
(0.0197616 -2.27127e-07 0)
(0.0197617 -7.54536e-08 0)
(0.0197614 8.84346e-08 0)
(0.0197613 1.1201e-07 0)
(0.019761 1.17413e-07 0)
(0.0197607 1.13561e-07 0)
(0.0197605 1.03065e-07 0)
(0.0197602 8.66927e-08 0)
(0.0197601 6.6216e-08 0)
(0.0197599 4.31601e-08 0)
(0.0197598 1.82737e-08 0)
(0.0197598 -7.9293e-09 0)
(0.0197598 -3.4917e-08 0)
(0.0197599 -6.23686e-08 0)
(0.0197601 -9.02392e-08 0)
(0.0197603 -1.18492e-07 0)
(0.0197605 -1.46264e-07 0)
(0.0197609 -1.66666e-07 0)
(0.0197612 -1.62501e-07 0)
(0.0197614 -2.26789e-07 0)
(0.0594111 -2.0407e-07 0)
(0.059411 5.0493e-08 0)
(0.0594108 3.68621e-07 0)
(0.0594105 4.47831e-07 0)
(0.0594102 4.68695e-07 0)
(0.0594098 4.54731e-07 0)
(0.0594094 4.16342e-07 0)
(0.059409 3.58476e-07 0)
(0.0594087 2.85231e-07 0)
(0.0594085 1.99665e-07 0)
(0.0594083 1.03946e-07 0)
(0.0594083 3.03096e-10 0)
(0.0594083 -1.08775e-07 0)
(0.0594085 -2.20861e-07 0)
(0.0594087 -3.33175e-07 0)
(0.0594091 -4.40768e-07 0)
(0.0594095 -5.33142e-07 0)
(0.05941 -5.80234e-07 0)
(0.0594106 -5.26121e-07 0)
(0.0594111 -4.7868e-07 0)
(0.0994398 -3.25597e-07 0)
(0.0994398 2.62202e-07 0)
(0.0994397 6.10472e-07 0)
(0.0994395 7.79013e-07 0)
(0.0994392 8.40879e-07 0)
(0.0994389 8.34249e-07 0)
(0.0994385 7.77512e-07 0)
(0.0994382 6.81832e-07 0)
(0.099438 5.54426e-07 0)
(0.0994377 3.99918e-07 0)
(0.0994376 2.22086e-07 0)
(0.0994375 2.50598e-08 0)
(0.0994375 -1.86497e-07 0)
(0.0994376 -4.0722e-07 0)
(0.0994378 -6.29436e-07 0)
(0.0994381 -8.39141e-07 0)
(0.0994384 -1.00979e-06 0)
(0.0994389 -1.08821e-06 0)
(0.0994393 -9.85408e-07 0)
(0.0994396 -6.8304e-07 0)
(0.140092 -3.24942e-07 0)
(0.140092 2.80229e-07 0)
(0.140092 7.22564e-07 0)
(0.140092 9.71776e-07 0)
(0.140092 1.08312e-06 0)
(0.140091 1.09874e-06 0)
(0.140091 1.04315e-06 0)
(0.140091 9.31691e-07 0)
(0.140091 7.74049e-07 0)
(0.140091 5.76563e-07 0)
(0.14009 3.44272e-07 0)
(0.14009 8.22594e-08 0)
(0.14009 -2.03581e-07 0)
(0.14009 -5.05429e-07 0)
(0.14009 -8.10754e-07 0)
(0.140091 -1.09706e-06 0)
(0.140091 -1.32501e-06 0)
(0.140091 -1.4287e-06 0)
(0.140091 -1.30828e-06 0)
(0.140091 -9.13626e-07 0)
(0.181596 -4.5628e-07 0)
(0.181596 1.98112e-07 0)
(0.181596 6.96854e-07 0)
(0.181596 1.00447e-06 0)
(0.181596 1.16359e-06 0)
(0.181596 1.21269e-06 0)
(0.181596 1.17649e-06 0)
(0.181596 1.07199e-06 0)
(0.181596 9.10833e-07 0)
(0.181596 7.00907e-07 0)
(0.181596 4.48097e-07 0)
(0.181595 1.57889e-07 0)
(0.181595 -1.633e-07 0)
(0.181595 -5.06383e-07 0)
(0.181595 -8.56205e-07 0)
(0.181595 -1.18587e-06 0)
(0.181595 -1.45003e-06 0)
(0.181595 -1.57841e-06 0)
(0.181595 -1.47421e-06 0)
(0.181595 -1.07245e-06 0)
(0.22416 -5.57446e-07 0)
(0.22416 6.25298e-08 0)
(0.22416 5.59724e-07 0)
(0.224161 8.91787e-07 0)
(0.224161 1.08416e-06 0)
(0.224161 1.16714e-06 0)
(0.224161 1.1619e-06 0)
(0.224161 1.08438e-06 0)
(0.224161 9.46208e-07 0)
(0.224161 7.55348e-07 0)
(0.224161 5.17512e-07 0)
(0.224161 2.3786e-07 0)
(0.224161 -7.74537e-08 0)
(0.224161 -4.19409e-07 0)
(0.224161 -7.72751e-07 0)
(0.224161 -1.11055e-06 0)
(0.22416 -1.38849e-06 0)
(0.22416 -1.53986e-06 0)
(0.22416 -1.47575e-06 0)
(0.22416 -1.12828e-06 0)
(0.267968 -6.16253e-07 0)
(0.267968 -9.24977e-08 0)
(0.267969 3.52441e-07 0)
(0.267969 6.70961e-07 0)
(0.267969 8.74295e-07 0)
(0.267969 9.83066e-07 0)
(0.26797 1.01243e-06 0)
(0.26797 9.74814e-07 0)
(0.26797 8.79812e-07 0)
(0.26797 7.33952e-07 0)
(0.26797 5.41746e-07 0)
(0.26797 3.07249e-07 0)
(0.26797 3.54362e-08 0)
(0.26797 -2.66246e-07 0)
(0.26797 -5.84946e-07 0)
(0.267969 -8.97454e-07 0)
(0.267969 -1.16574e-06 0)
(0.267969 -1.33357e-06 0)
(0.267969 -1.32484e-06 0)
(0.267968 -1.07487e-06 0)
(0.313173 -6.19264e-07 0)
(0.313174 -2.38566e-07 0)
(0.313174 1.10367e-07 0)
(0.313174 3.79158e-07 0)
(0.313174 5.68715e-07 0)
(0.313175 6.89956e-07 0)
(0.313175 7.50857e-07 0)
(0.313175 7.5872e-07 0)
(0.313176 7.19556e-07 0)
(0.313176 6.37235e-07 0)
(0.313176 5.14137e-07 0)
(0.313176 3.52418e-07 0)
(0.313176 1.5498e-07 0)
(0.313176 -7.36305e-08 0)
(0.313175 -3.25044e-07 0)
(0.313175 -5.82838e-07 0)
(0.313175 -8.19232e-07 0)
(0.313174 -9.93331e-07 0)
(0.313174 -1.04685e-06 0)
(0.313174 -9.20924e-07 0)
(0.359895 -5.61841e-07 0)
(0.359895 -3.56646e-07 0)
(0.359895 -1.38052e-07 0)
(0.359896 5.08823e-08 0)
(0.359896 2.03695e-07 0)
(0.359896 3.22374e-07 0)
(0.359897 4.0755e-07 0)
(0.359897 4.60601e-07 0)
(0.359897 4.82972e-07 0)
(0.359898 4.74967e-07 0)
(0.359898 4.36056e-07 0)
(0.359898 3.65813e-07 0)
(0.359898 2.64367e-07 0)
(0.359898 1.32517e-07 0)
(0.359897 -2.70957e-08 0)
(0.359897 -2.06744e-07 0)
(0.359897 -3.91404e-07 0)
(0.359896 -5.5858e-07 0)
(0.359896 -6.71813e-07 0)
(0.359895 -6.81049e-07 0)
(0.408216 -4.46346e-07 0)
(0.408216 -4.33934e-07 0)
(0.408216 -3.67842e-07 0)
(0.408217 -2.80265e-07 0)
(0.408217 -1.8278e-07 0)
(0.408217 -8.10551e-08 0)
(0.408218 1.87084e-08 0)
(0.408218 1.1184e-07 0)
(0.408219 1.94791e-07 0)
(0.408219 2.63805e-07 0)
(0.408219 3.14989e-07 0)
(0.408219 3.44927e-07 0)
(0.408219 3.50627e-07 0)
(0.408219 3.28834e-07 0)
(0.408219 2.76091e-07 0)
(0.408218 1.90735e-07 0)
(0.408218 7.39365e-08 0)
(0.408218 -7.16171e-08 0)
(0.408217 -2.33827e-07 0)
(0.408217 -3.75113e-07 0)
(0.458181 -2.82989e-07 0)
(0.458181 -4.64707e-07 0)
(0.458181 -5.59373e-07 0)
(0.458181 -5.84313e-07 0)
(0.458181 -5.5431e-07 0)
(0.458182 -4.81234e-07 0)
(0.458182 -3.77211e-07 0)
(0.458182 -2.52566e-07 0)
(0.458183 -1.15762e-07 0)
(0.458183 2.535e-08 0)
(0.458183 1.63452e-07 0)
(0.458183 2.92104e-07 0)
(0.458183 4.0526e-07 0)
(0.458183 4.95855e-07 0)
(0.458183 5.54755e-07 0)
(0.458183 5.71328e-07 0)
(0.458182 5.33183e-07 0)
(0.458182 4.23347e-07 0)
(0.458181 2.28692e-07 0)
(0.458181 -2.94404e-08 0)
(0.509792 -8.97902e-08 0)
(0.509792 -4.51286e-07 0)
(0.509792 -7.00455e-07 0)
(0.509792 -8.37594e-07 0)
(0.509792 -8.79116e-07 0)
(0.509793 -8.41787e-07 0)
(0.509793 -7.42579e-07 0)
(0.509793 -5.96724e-07 0)
(0.509794 -4.17101e-07 0)
(0.509794 -2.15269e-07 0)
(0.509794 -1.63317e-09 0)
(0.509794 2.14696e-07 0)
(0.509794 4.25095e-07 0)
(0.509794 6.19442e-07 0)
(0.509794 7.84042e-07 0)
(0.509794 9.00703e-07 0)
(0.509793 9.45065e-07 0)
(0.509793 8.82187e-07 0)
(0.509793 6.74532e-07 0)
(0.509792 3.23922e-07 0)
(0.563012 1.0903e-07 0)
(0.563012 -4.0351e-07 0)
(0.563012 -7.86678e-07 0)
(0.563012 -1.02376e-06 0)
(0.563013 -1.13168e-06 0)
(0.563013 -1.1312e-06 0)
(0.563013 -1.04306e-06 0)
(0.563013 -8.86405e-07 0)
(0.563014 -6.77684e-07 0)
(0.563014 -4.31416e-07 0)
(0.563014 -1.60397e-07 0)
(0.563014 1.24282e-07 0)
(0.563014 4.12245e-07 0)
(0.563014 6.91473e-07 0)
(0.563014 9.45384e-07 0)
(0.563014 1.15045e-06 0)
(0.563014 1.27309e-06 0)
(0.563013 1.26354e-06 0)
(0.563013 1.06231e-06 0)
(0.563013 6.49386e-07 0)
(0.617765 2.85974e-07 0)
(0.617765 -3.36471e-07 0)
(0.617765 -8.19815e-07 0)
(0.617765 -1.13296e-06 0)
(0.617765 -1.29283e-06 0)
(0.617766 -1.32379e-06 0)
(0.617766 -1.2494e-06 0)
(0.617766 -1.09142e-06 0)
(0.617766 -8.68712e-07 0)
(0.617766 -5.97659e-07 0)
(0.617766 -2.92463e-07 0)
(0.617766 3.47539e-08 0)
(0.617766 3.72911e-07 0)
(0.617766 7.09487e-07 0)
(0.617766 1.02703e-06 0)
(0.617766 1.29948e-06 0)
(0.617766 1.48767e-06 0)
(0.617766 1.53151e-06 0)
(0.617766 1.35335e-06 0)
(0.617766 9.10907e-07 0)
(0.673935 4.14714e-07 0)
(0.673935 -2.66232e-07 0)
(0.673935 -8.04279e-07 0)
(0.673935 -1.1592e-06 0)
(0.673935 -1.34839e-06 0)
(0.673935 -1.39964e-06 0)
(0.673935 -1.33836e-06 0)
(0.673935 -1.18738e-06 0)
(0.673935 -9.66363e-07 0)
(0.673935 -6.92169e-07 0)
(0.673935 -3.79204e-07 0)
(0.673935 -3.95679e-08 0)
(0.673935 3.16046e-07 0)
(0.673935 6.76031e-07 0)
(0.673935 1.02416e-06 0)
(0.673935 1.33492e-06 0)
(0.673935 1.56778e-06 0)
(0.673935 1.65781e-06 0)
(0.673935 1.51439e-06 0)
(0.673935 1.07579e-06 0)
(0.731371 4.7432e-07 0)
(0.731371 -2.05204e-07 0)
(0.731371 -7.43555e-07 0)
(0.73137 -1.09806e-06 0)
(0.73137 -1.28852e-06 0)
(0.73137 -1.34523e-06 0)
(0.73137 -1.29411e-06 0)
(0.73137 -1.15733e-06 0)
(0.73137 -9.53479e-07 0)
(0.73137 -6.98315e-07 0)
(0.73137 -4.05184e-07 0)
(0.73137 -8.51555e-08 0)
(0.73137 2.52412e-07 0)
(0.73137 5.9805e-07 0)
(0.73137 9.38633e-07 0)
(0.73137 1.25218e-06 0)
(0.73137 1.50127e-06 0)
(0.73137 1.62213e-06 0)
(0.731371 1.51897e-06 0)
(0.731371 1.1173e-06 0)
(0.789889 4.47366e-07 0)
(0.789889 -1.62968e-07 0)
(0.789889 -6.40351e-07 0)
(0.789888 -9.46473e-07 0)
(0.789888 -1.10745e-06 0)
(0.789888 -1.15411e-06 0)
(0.789888 -1.11014e-06 0)
(0.789887 -9.94732e-07 0)
(0.789887 -8.23421e-07 0)
(0.789887 -6.09232e-07 0)
(0.789887 -3.63213e-07 0)
(0.789887 -9.44774e-08 0)
(0.789887 1.89669e-07 0)
(0.789887 4.82613e-07 0)
(0.789887 7.7551e-07 0)
(0.789887 1.0522e-06 0)
(0.789888 1.28251e-06 0)
(0.789888 1.41064e-06 0)
(0.789888 1.34837e-06 0)
(0.789888 1.01567e-06 0)
(0.849278 3.42252e-07 0)
(0.849279 -1.3319e-07 0)
(0.849278 -4.91534e-07 0)
(0.849278 -7.0592e-07 0)
(0.849278 -8.11163e-07 0)
(0.849278 -8.36231e-07 0)
(0.849277 -7.99211e-07 0)
(0.849277 -7.13609e-07 0)
(0.849277 -5.89764e-07 0)
(0.849276 -4.36234e-07 0)
(0.849276 -2.60493e-07 0)
(0.849276 -6.89957e-08 0)
(0.849276 1.33025e-07 0)
(0.849276 3.41228e-07 0)
(0.849276 5.50662e-07 0)
(0.849277 7.52509e-07 0)
(0.849277 9.28319e-07 0)
(0.849277 1.03728e-06 0)
(0.849278 1.0104e-06 0)
(0.849278 7.63083e-07 0)
(0.909307 1.71836e-07 0)
(0.909308 -8.51203e-08 0)
(0.909307 -2.81326e-07 0)
(0.909307 -3.83835e-07 0)
(0.909307 -4.26643e-07 0)
(0.909306 -4.31017e-07 0)
(0.909306 -4.06553e-07 0)
(0.909306 -3.59828e-07 0)
(0.909305 -2.95469e-07 0)
(0.909305 -2.17046e-07 0)
(0.909305 -1.27631e-07 0)
(0.909305 -3.00909e-08 0)
(0.909305 7.27186e-08 0)
(0.909305 1.77903e-07 0)
(0.909305 2.82994e-07 0)
(0.909305 3.85888e-07 0)
(0.909306 4.80471e-07 0)
(0.909306 5.46285e-07 0)
(0.909307 5.38214e-07 0)
(0.909307 4.16871e-07 0)
(0.969726 3.75216e-08 0)
(0.969726 -3.48973e-08 0)
(0.969726 -8.74381e-08 0)
(0.969726 -1.08234e-07 0)
(0.969725 -1.13608e-07 0)
(0.969725 -1.10772e-07 0)
(0.969725 -1.02145e-07 0)
(0.969725 -8.91375e-08 0)
(0.969724 -7.25337e-08 0)
(0.969724 -5.27582e-08 0)
(0.969724 -3.01715e-08 0)
(0.969724 -5.34063e-09 0)
(0.969724 2.0749e-08 0)
(0.969724 4.67578e-08 0)
(0.969724 7.17811e-08 0)
(0.969725 9.64415e-08 0)
(0.969725 1.21151e-07 0)
(0.969725 1.41423e-07 0)
(0.969725 1.39504e-07 0)
(0.969726 1.07134e-07 0)
)
;

boundaryField
{
    movingWall
    {
        type            fixedValue;
        value           uniform (1 0 0);
    }
    fixedWalls
    {
        type            noSlip;
    }
    left
    {
        type            cyclic;
    }
    right
    {
        type            cyclic;
    }
    frontAndBack
    {
        type            empty;
    }
}


// ************************************************************************* //
