/*--------------------------------*- C++ -*----------------------------------*\
  =========                 |
  \\      /  F ield         | OpenFOAM: The Open Source CFD Toolbox
   \\    /   O peration     | Website:  https://openfoam.org
    \\  /    A nd           | Version:  8
     \\/     M anipulation  |
\*---------------------------------------------------------------------------*/
FoamFile
{
    version     2.0;
    format      ascii;
    class       volScalarField;
    location    "0.589";
    object      T;
}
// * * * * * * * * * * * * * * * * * * * * * * * * * * * * * * * * * * * * * //

dimensions      [0 0 0 1 0 0 0];

internalField   nonuniform List<scalar> 
10000
(
50
4.65023
-4.65011
-1.17835
1.1778
0.448797
-0.447186
-0.217868
0.214272
0.126109
-0.119344
-0.08438
0.0730881
0.0638199
-0.0466291
-0.0530546
0.0288257
0.0467423
-0.0149123
-0.0419071
0.00289862
0.0366615
0.00772258
-0.0298097
-0.0165259
0.0208305
0.022515
-0.0100073
-0.0245263
-0.00146793
0.0217508
0.0115889
-0.0143163
-0.0179724
0.00373325
0.0186737
0.00708999
-0.0132016
-0.0145276
0.00329156
0.015628
0.00715854
-0.00976805
-0.0134133
-0.000356631
0.0122684
0.00942027
-0.00432192
-0.0121459
-0.00557534
0.00683388
0.0108382
0.00274229
-0.00775141
-0.00932847
-0.00108939
0.00768774
0.00810278
0.000470673
-0.00706166
-0.00728387
-0.000656469
0.00606797
0.00676799
0.00141473
-0.00474198
-0.00631547
-0.00249524
0.0030646
0.00561763
0.00357524
-0.00108947
-0.00439084
-0.00423227
-0.000934002
0.00253526
0.00402276
0.00251332
-0.000322984
-0.00272311
-0.00305297
-0.00154573
0.000657731
0.00224237
0.00223876
0.00120493
-0.000513149
-0.00145259
-0.00177801
-0.000962427
-5.2929e-05
0.000851727
0.00116236
0.000883347
0.000447345
-0.000276774
-0.000518234
-0.000666452
-0.00054427
-6.77265e-05
95.3498
50
10.4786
-4.64972
-2.80482
1.17645
1.11368
-0.443954
-0.558069
0.20799
0.329693
-0.108658
-0.221246
0.0566117
0.163628
-0.0231814
-0.128979
-0.00223441
0.104198
0.0234549
-0.082389
-0.0411196
0.059891
0.0541167
-0.035323
-0.060457
0.00935487
0.0581557
0.0154232
-0.0462674
-0.0349654
0.0259346
0.0448474
-0.00105714
-0.0419706
-0.0219633
0.0264893
0.0358333
-0.00307635
-0.0352443
-0.0195776
0.0200384
0.0317221
0.00316422
-0.0273779
-0.0227658
0.00870694
0.0278593
0.0134457
-0.0153741
-0.0249735
-0.00624676
0.018038
0.0212912
0.00180397
-0.0182104
-0.0181819
0.00014636
0.0170077
0.0160946
-0.000130695
-0.0150004
-0.014902
-0.00132762
0.0123236
0.0141352
0.00371398
-0.00889172
-0.0131269
-0.00639995
0.00467259
0.0111648
0.00853273
5.29478e-06
-0.00776708
-0.00910609
-0.00422403
0.0030931
0.00736427
0.00658904
0.00171543
-0.00348291
-0.00595728
-0.00474175
-0.000960175
0.00259571
0.00447655
0.0035235
0.00129119
-0.00147281
-0.00276674
-0.00287032
-0.0014908
0.000100019
0.00130693
0.00196768
0.00132414
0.000925743
-0.00026878
-0.000747839
104.65
89.5214
49.9999
12.105
-4.64891
-3.46964
1.174
1.45387
-0.438691
-0.76179
0.198529
0.466952
-0.0935478
-0.321816
0.0345524
0.24078
0.00665127
-0.188171
-0.0397779
0.146869
0.0673265
-0.108065
-0.0882862
0.0677479
0.0998549
-0.0255861
-0.0988161
-0.0154866
0.0830772
0.0498876
-0.0533194
-0.0707794
0.0142887
0.0724503
0.0250575
-0.0533083
-0.0533248
0.0183703
0.0605844
0.0204119
-0.0434112
-0.0474237
0.00862107
0.0501856
0.0274046
-0.0270257
-0.0456057
-0.00931228
0.0353744
0.036684
-0.00337996
-0.0370148
-0.0279797
0.0105074
0.0352427
0.0215903
-0.0132035
-0.0322338
-0.0179934
0.0127022
0.028975
0.0168173
-0.00989447
-0.025555
-0.0172666
0.00535983
0.0215199
0.0182625
0.000352581
-0.0162529
-0.0184907
-0.00636088
0.00944064
0.0165997
0.0112074
-0.00161255
-0.0117481
-0.0130437
-0.00550992
0.00444521
0.01053
0.00938792
0.00292258
-0.00426589
-0.00816841
-0.00691568
-0.00245707
0.00275346
0.00554297
0.00538085
0.0026279
-0.000635305
-0.00320386
-0.00361848
-0.00289654
-0.000792865
0.00086361
0.00174449
0.00239955
0.00100398
101.178
104.65
87.895
49.9998
12.7698
-4.64754
-3.80989
1.17018
1.65785
-0.431006
-0.899659
0.185438
0.568656
-0.0735855
-0.400779
0.00663886
0.302546
0.0428032
-0.234138
-0.0831966
0.176325
0.115373
-0.1197
-0.136482
0.0610676
0.142178
-0.00223818
-0.12867
-0.0507459
0.0949697
0.0890498
-0.0449976
-0.103745
-0.0113803
0.0896761
0.0595001
-0.0494325
-0.083988
-0.00456366
0.0752622
0.0521541
-0.0359888
-0.0727869
-0.0165855
0.056203
0.0561412
-0.0108959
-0.0606699
-0.0368087
0.0275127
0.0565785
0.0209808
-0.0351139
-0.0496614
-0.0106914
0.0366994
0.0431981
0.00575332
-0.0346829
-0.0384234
-0.0051711
0.0304139
0.0352172
0.00779092
-0.0243483
-0.0326357
-0.0123812
0.0165047
0.0292819
0.0174297
-0.00706565
-0.0237219
-0.0209779
-0.00298214
0.0151578
0.0208601
0.0114638
-0.00433508
-0.0156487
-0.0154367
-0.00587157
0.0061302
0.0128525
0.0112787
0.00381062
-0.00484968
-0.00928758
-0.00869382
-0.00354683
0.00214049
0.00590799
0.00645169
0.00381921
0.000426388
-0.00257208
-0.00413616
-0.00309445
-0.00224269
0.000300918
0.00144251
98.8221
102.805
104.649
87.2302
49.9996
13.1101
-4.64546
-4.01412
1.16472
1.79636
-0.42053
-1.00262
0.168305
0.649713
-0.0484227
-0.465643
-0.0272658
0.352644
0.0850107
-0.268558
-0.131632
0.193245
0.166005
-0.117776
-0.183411
0.0408436
0.178372
0.0326426
-0.147499
-0.0929796
0.0924057
0.12834
-0.0219083
-0.129089
-0.0478699
0.093066
0.0968022
-0.0298499
-0.107762
-0.0389191
0.0754741
0.0855907
-0.0128514
-0.0886494
-0.0506112
0.046109
0.0813736
0.0185929
-0.0615568
-0.0660479
0.00408394
0.0649724
0.05083
-0.0169617
-0.0621529
-0.0395337
0.021958
0.0569682
0.0330787
-0.0212288
-0.0512005
-0.0308467
0.0163618
0.0450432
0.031443
-0.00841939
-0.0377278
-0.0329609
-0.00157433
0.0282033
0.0330858
0.0120046
-0.0159705
-0.0294584
-0.0202666
0.00204228
0.0206383
0.0231412
0.0104468
-0.00755762
-0.0184127
-0.0169538
-0.0055696
0.00731485
0.0142981
0.012659
0.00435431
-0.00438637
-0.0101169
-0.00937296
-0.00501392
0.00115928
0.0056667
0.00640847
0.00530377
0.00124547
-0.0015058
-0.00324839
-0.00429041
-0.00163244
99.5513
98.8232
103.47
104.648
86.8898
49.9994
13.3145
-4.64254
-4.15315
1.15736
1.90048
-0.406913
-1.08577
0.146768
0.717859
-0.0177965
-0.520353
-0.0671591
0.392913
0.132814
-0.292125
-0.183991
0.197898
0.217424
-0.102785
-0.226696
0.00838323
0.205907
0.0765092
-0.153364
-0.138364
0.0749641
0.163223
0.0140671
-0.14279
-0.0908461
0.0807416
0.131111
0.00383255
-0.119365
-0.0794797
0.0591098
0.113687
0.0232072
-0.0896086
-0.0864425
0.019611
0.0955047
0.0556337
-0.0451018
-0.0883214
-0.0307448
0.0564737
0.0770566
0.0147427
-0.0585674
-0.0667726
-0.00718995
0.0551945
0.059323
0.00646189
-0.048445
-0.0544648
-0.0107438
0.0389837
0.0506897
0.0181327
-0.0267717
-0.0457879
-0.0262961
0.0120101
0.0374741
0.0321867
0.00384483
-0.0244159
-0.0323947
-0.0174317
0.00764215
0.0246222
0.0240693
0.0084984
-0.0100119
-0.020337
-0.0174833
-0.00544643
0.00780742
0.0149692
0.0132459
0.0056012
-0.00395697
-0.00924306
-0.0103492
-0.00582526
-0.000438764
0.00419715
0.00684751
0.00483868
0.00360372
-0.000714251
-0.0025724
100.447
98.8864
98.8254
103.81
104.647
86.6854
49.9992
13.4539
-4.63863
-4.25817
1.14783
1.98547
-0.389829
-1.15705
0.12051
0.777266
0.0184661
-0.566951
-0.112898
0.424155
0.185563
-0.305026
-0.238976
0.190425
0.267681
-0.0753949
-0.263983
-0.0346177
0.222579
0.126386
-0.145045
-0.182872
0.0432944
0.189495
0.0598869
-0.141914
-0.135217
0.0525945
0.1568
0.0480803
-0.11507
-0.11988
0.0266538
0.129983
0.0668876
-0.0728149
-0.116252
-0.0200943
0.0928744
0.0921813
-0.0121665
-0.0959579
-0.069334
0.0299403
0.0906886
0.0528491
-0.0363968
-0.0826299
-0.0437594
0.0347981
0.0742345
0.0410081
-0.0274238
-0.0656482
-0.0425276
0.0156975
0.0556267
0.0455656
-0.000932792
-0.042491
-0.0467644
-0.0147139
0.0253088
0.0426118
0.0275869
-0.00529647
-0.0307954
-0.0329536
-0.0132135
0.0123655
0.0272483
0.0236446
0.00675954
-0.0117111
-0.0210248
-0.0176374
-0.00555675
0.00741604
0.0146437
0.0136475
0.00646587
-0.00201215
-0.00863169
-0.00934295
-0.00748887
-0.00174067
0.00248435
0.00476029
0.00641698
0.00254545
100.218
100.444
98.5461
98.8288
104.014
104.644
86.546
49.9989
13.5594
-4.63361
-4.34453
1.1359
2.05942
-0.368977
-1.22084
0.0892686
0.830199
0.0604458
-0.606409
-0.164197
0.446588
0.242431
-0.30721
-0.295119
0.171013
0.314748
-0.0365498
-0.293043
-0.0860597
0.226636
0.17896
-0.122139
-0.222483
-0.000893403
0.203573
0.111559
-0.124869
-0.175583
0.0103153
0.169068
0.0978136
-0.0931867
-0.153428
-0.01884
0.129572
0.111176
-0.0385133
-0.132775
-0.0668227
0.0709479
0.119559
0.0323976
-0.0841378
-0.102269
-0.01103
0.0852812
0.0875022
0.00151658
-0.0797151
-0.0774448
-0.00136415
0.070195
0.0715213
0.00806809
-0.0574221
-0.0675197
-0.0191534
0.0410685
0.0622855
0.0316097
-0.0210748
-0.052479
-0.0413792
-0.000920527
0.035914
0.0436907
0.020566
-0.0135344
-0.0349617
-0.0313966
-0.00903397
0.0160534
0.0282202
0.02269
0.00539508
-0.012361
-0.0206942
-0.0175078
-0.00597704
0.00627729
0.0133746
0.0135573
0.00733066
-0.000209662
-0.00620752
-0.00916623
-0.00644728
-0.00441657
0.00111542
0.00337018
99.7855
100.558
100.44
98.342
98.8339
104.153
104.641
86.4405
49.9987
13.6465
-4.62735
-4.42045
1.12133
2.1269
-0.344079
-1.27962
0.0528316
0.877836
0.108131
-0.639071
-0.220637
0.460112
0.302428
-0.298554
-0.350814
0.140004
0.35658
0.0124797
-0.311873
-0.143469
0.216878
0.230712
-0.0851141
-0.253404
-0.0549128
0.202751
0.164427
-0.0915537
-0.206718
-0.0427464
0.164458
0.146956
-0.0543023
-0.173964
-0.0721108
0.109866
0.148389
0.0098995
-0.130598
-0.112431
0.0309343
0.130203
0.0806059
-0.0521184
-0.120488
-0.058728
0.0587214
0.10863
0.0474432
-0.0553406
-0.0975335
-0.0449918
0.0449134
0.0870685
0.048559
-0.0290383
-0.0752866
-0.0545737
0.00904638
0.0596053
0.0586456
0.0126523
-0.038291
-0.0559754
-0.0315425
0.0123392
0.0429948
0.041319
0.0130133
-0.0202608
-0.0366502
-0.0290148
-0.00516915
0.0181013
0.028164
0.0214862
0.00451359
-0.0117217
-0.0200536
-0.0166563
-0.00695544
0.00462417
0.0118882
0.0121101
0.00875154
0.000911753
-0.00389151
-0.00671545
-0.00771193
-0.00258284
99.874
99.7914
100.762
100.432
98.2033
98.8407
104.259
104.636
86.3533
49.9983
13.7235
-4.61972
-4.49061
1.10391
2.19057
-0.314882
-1.33478
0.0110403
0.920709
0.161417
-0.66491
-0.281665
0.464466
0.364421
-0.278973
-0.404362
0.0979575
0.391188
0.0700828
-0.318781
-0.204056
0.192742
0.278059
-0.0353097
-0.272291
-0.115243
0.18541
0.213508
-0.043397
-0.224037
-0.101864
0.141251
0.189086
-0.0012822
-0.176668
-0.126325
0.071053
0.171321
0.0662858
-0.107168
-0.148181
-0.0222491
0.119223
0.122823
-0.00363488
-0.117366
-0.102906
0.0140378
0.108538
0.0905119
-0.0126116
-0.0960019
-0.0844535
0.00255077
0.0802367
0.0816688
0.0132719
-0.0602946
-0.0779462
-0.0314057
0.0354463
0.0686841
0.0469498
-0.00705918
-0.0504363
-0.0536997
-0.0198708
0.0234624
0.0463389
0.0370479
0.00590403
-0.0246848
-0.0368099
-0.0260761
-0.00264037
0.0190316
0.0271047
0.0203724
0.00465391
-0.0108704
-0.0178885
-0.0167998
-0.00711334
0.00216126
0.00954031
0.0118847
0.00737304
0.00442004
-0.00321357
-0.00493483
100.12
99.6702
99.8005
100.9
100.422
98.0989
98.8497
104.345
104.631
86.2762
49.998
13.7951
-4.61059
-4.55783
1.0834
2.25203
-0.28116
-1.38707
-0.036209
0.958946
0.220106
-0.683673
-0.346602
0.45933
0.427147
-0.248494
-0.45401
0.0456971
0.416705
0.134312
-0.312476
-0.26479
0.154351
0.317521
0.0250905
-0.276456
-0.17772
0.15116
0.253856
0.0167013
-0.224034
-0.161334
0.0997113
0.21813
0.0609665
-0.158725
-0.173915
0.0162171
0.17435
0.122582
-0.0633903
-0.166241
-0.0806423
0.0855313
0.149604
0.0535675
-0.090368
-0.132958
-0.0409267
0.0840353
0.119297
0.0399345
-0.0700133
-0.107911
-0.0469845
0.0497806
0.0958866
0.0577842
-0.02428
-0.0794271
-0.0669966
-0.00427531
0.0555463
0.0684274
0.0308608
-0.0244212
-0.0567987
-0.0475951
-0.008357
0.0313939
0.0467646
0.0319563
0.000321194
-0.0270661
-0.0355919
-0.0236666
-0.00105904
0.0182144
0.0258524
0.0192211
0.00546803
-0.00852452
-0.0165188
-0.0147967
-0.00958886
0.0010167
0.00642163
0.00945066
0.00965149
0.00247107
100.084
100.109
99.5326
99.8132
101.003
100.409
98.0136
98.8611
104.421
104.624
86.2045
49.9976
13.8643
-4.59983
-4.62384
1.05961
2.3122
-0.242711
-1.43682
-0.0889607
0.992423
0.283903
-0.694987
-0.414643
0.444404
0.489239
-0.207312
-0.497996
-0.0156635
0.431461
0.202913
-0.29214
-0.32251
0.102561
0.345893
0.0931381
-0.264057
-0.237784
0.100931
0.280951
0.084548
-0.204649
-0.214989
0.0421696
0.229065
0.125964
-0.119805
-0.207549
-0.0489101
0.154393
0.169942
-0.00372855
-0.161128
-0.134473
0.0323556
0.153618
0.109031
-0.0419653
-0.14033
-0.0949584
0.0376539
0.124739
0.0901105
-0.023222
-0.106748
-0.090445
0.00164056
0.0843906
0.0906294
0.023591
-0.0557669
-0.0846237
-0.0470521
0.021373
0.0672744
0.0611262
0.0136943
-0.0374173
-0.0582495
-0.0394385
0.00134225
0.0361402
0.0450673
0.0270135
-0.0033042
-0.0276336
-0.0334479
-0.0217536
-0.00100479
0.0167146
0.023158
0.0190595
0.00612111
-0.00540011
-0.0133071
-0.0147206
-0.00819606
-0.00404378
0.00532155
0.00660852
99.9266
100.222
100.095
99.4305
99.8299
101.087
100.393
97.9392
98.875
104.492
104.615
86.1352
49.9972
13.9327
-4.58734
-4.68973
1.03233
2.37164
-0.199367
-1.48411
-0.147199
1.02086
0.352416
-0.698429
-0.484875
0.419461
0.549254
-0.155826
-0.534609
-0.0847186
0.434054
0.273376
-0.257497
-0.374043
0.038947
0.360429
0.165254
-0.234257
-0.290772
0.0369622
0.291083
0.154957
-0.165537
-0.256786
-0.0271162
0.218553
0.186349
-0.0622658
-0.221146
-0.116596
0.111551
0.200096
0.0642748
-0.130857
-0.173821
-0.0330286
0.131318
0.151569
0.0204689
-0.120685
-0.135865
-0.0224496
0.102734
0.125035
0.0346124
-0.0784186
-0.114938
-0.0521856
0.0477713
0.100274
0.0691379
-0.0122052
-0.0763283
-0.0779124
-0.0233065
0.0417531
0.0710977
0.0495322
-0.00173812
-0.0457642
-0.0558947
-0.0311285
0.00870634
0.0379465
0.0421107
0.0229308
-0.00537465
-0.0261681
-0.0312722
-0.0197861
-0.002156
0.0139644
0.0208311
0.0168614
0.00889419
-0.00372476
-0.00911973
-0.0118974
-0.0104652
-0.0019386
99.9362
99.9427
100.323
100.075
99.349
99.851
101.159
100.372
97.8713
98.8917
104.559
104.605
86.0666
49.9967
14.0017
-4.57298
-4.75621
1.00139
2.43062
-0.150988
-1.52881
-0.21085
1.04387
0.425169
-0.693568
-0.556289
0.384382
0.605709
-0.0946559
-0.562238
-0.15979
0.423413
0.343017
-0.20884
-0.416351
-0.0342367
0.359001
0.237413
-0.187307
-0.332233
-0.0373124
0.281687
0.222155
-0.10818
-0.281416
-0.102314
0.185403
0.234708
0.00900077
-0.210767
-0.17808
0.0492988
0.206688
0.131044
-0.0775317
-0.190419
-0.100398
0.0839285
0.171558
0.0858949
-0.0752249
-0.153303
-0.0840643
0.0556107
0.134544
0.0898506
-0.0277038
-0.111855
-0.0968981
-0.00552503
0.081618
0.0977151
0.0387023
-0.0427253
-0.0850648
-0.0631052
-0.000419953
0.0554869
0.0686213
0.0365855
-0.0140778
-0.0497525
-0.0514481
-0.0235786
0.0133066
0.0377569
0.0384186
0.0198846
-0.00570171
-0.0241303
-0.0277502
-0.0194069
-0.00254468
0.00995992
0.0176308
0.0162545
0.00758486
0.00201886
-0.00848976
-0.00794361
100.047
99.8359
99.9644
100.402
100.05
99.2802
99.8768
101.223
100.348
97.807
98.9115
104.626
104.594
85.9975
49.9962
14.0719
-4.55665
-4.82372
0.966604
2.48924
-0.0974604
-1.57072
-0.279783
1.06102
0.501603
-0.68
-0.627799
0.339179
0.657109
-0.0246473
-0.579417
-0.238959
0.398842
0.409052
-0.147047
-0.446649
-0.114144
0.340226
0.305351
-0.124573
-0.358231
-0.117468
0.251576
0.280236
-0.0358224
-0.284836
-0.176541
0.1308
0.264434
0.087034
-0.175234
-0.224718
-0.0258337
0.186356
0.186379
-0.00723364
-0.179212
-0.158286
0.017515
0.162977
0.141702
-0.0107844
-0.141278
-0.133589
-0.00804461
0.114006
0.128409
0.034172
-0.0796482
-0.119201
-0.0613875
0.0380321
0.099118
0.0810958
0.00676613
-0.0644454
-0.0835516
-0.0447434
0.0187909
0.0626209
0.0622387
0.0244319
-0.0228046
-0.0502766
-0.046259
-0.0176053
0.0156701
0.035667
0.0352607
0.0172634
-0.00436535
-0.021228
-0.0250672
-0.0172112
-0.00597589
0.00864048
0.0125825
0.0145164
0.00994292
1.93094e-05
100.053
100.024
99.7581
99.9921
100.468
100.02
99.2201
99.9076
101.283
100.319
97.7449
98.9346
104.692
104.58
85.9271
49.9957
14.144
-4.53823
-4.89255
0.927806
2.54748
-0.0386977
-1.60953
-0.353815
1.07183
0.581078
-0.657368
-0.69825
0.28401
0.701971
0.0531274
-0.584864
-0.320093
0.360053
0.468684
-0.0735648
-0.46253
-0.197436
0.303556
0.364779
-0.048495
-0.36561
-0.198347
0.201094
0.323627
0.0467138
-0.264707
-0.242481
0.058307
0.270489
0.163506
-0.116436
-0.249119
-0.104979
0.139392
0.220981
0.0707109
-0.139404
-0.195928
-0.0578405
0.1248
0.176159
0.0612613
-0.0997248
-0.159058
-0.0750506
0.065793
0.139357
0.0921751
-0.0246368
-0.111204
-0.103949
-0.0192924
0.0710453
0.100884
0.056818
-0.0214219
-0.0763456
-0.0752041
-0.0262458
0.0327008
0.0644938
0.0541261
0.0142806
-0.0276284
-0.0488967
-0.0406912
-0.0139598
0.016114
0.0328243
0.0314116
0.0171376
-0.00379148
-0.0163479
-0.0224474
-0.0168841
-0.00546389
0.00157935
0.0129776
0.00955656
99.9708
100.13
99.9942
99.6956
100.026
100.523
99.9839
99.1663
99.9437
101.339
100.286
97.684
98.9611
104.759
104.565
85.8547
49.9952
14.2184
-4.5176
-4.96286
0.884837
2.60523
0.0253568
-1.64486
-0.4327
1.07584
0.662876
-0.625384
-0.766427
0.219201
0.738854
0.137367
-0.577527
-0.400888
0.307204
0.519183
0.00960053
-0.462074
-0.280396
0.249357
0.41161
0.0374893
-0.352238
-0.274366
0.132183
0.347544
0.133343
-0.220705
-0.293062
-0.0263424
0.250069
0.229589
-0.0393072
-0.246185
-0.177974
0.0699742
0.227914
0.144967
-0.0749079
-0.205191
-0.12957
0.0615642
0.180801
0.12701
-0.034966
-0.152947
-0.130374
-0.000787454
0.117894
0.131125
0.0401534
-0.0729956
-0.120084
-0.0741921
0.0202885
0.090378
0.0909078
0.0305442
-0.042616
-0.0799577
-0.0630555
-0.0104471
0.0414941
0.0624064
0.0460039
0.00701641
-0.0296622
-0.0452728
-0.0367722
-0.0109577
0.0137462
0.0295824
0.028383
0.0156316
0.000923379
-0.0148693
-0.0163882
-0.0167563
-0.00838183
0.00255782
99.953
100.002
100.19
99.9581
99.6447
100.066
100.571
99.942
99.1177
99.9852
101.392
100.248
97.6237
98.9913
104.827
104.548
85.7802
49.9946
14.2952
-4.49465
-5.03472
0.837549
2.66232
0.0947256
-1.67632
-0.516132
1.07257
0.746204
-0.583851
-0.831079
0.145258
0.766396
0.226551
-0.556624
-0.478917
0.240928
0.557992
0.0999271
-0.44397
-0.359083
0.178947
0.442201
0.129086
-0.317217
-0.339885
0.0483437
0.348443
0.217157
-0.154713
-0.322178
-0.115683
0.203087
0.276968
0.0485442
-0.213979
-0.234669
-0.0141299
0.203879
0.203853
0.00591212
-0.182235
-0.184738
-0.0170269
0.152437
0.172746
0.041121
-0.114292
-0.160549
-0.0711908
0.067127
0.139741
0.0980305
-0.0133195
-0.103559
-0.110119
-0.0386365
0.051358
0.0969205
0.0739243
0.00676825
-0.0562275
-0.0773024
-0.050185
0.00177806
0.0453674
0.058314
0.0384488
0.00279356
-0.0290922
-0.0412303
-0.032249
-0.0113953
0.0124615
0.0234264
0.0261785
0.0155287
0.00176799
-0.00639499
-0.0172906
-0.010476
100.015
99.8948
100.039
100.236
99.9158
99.6035
100.111
100.611
99.8943
99.0738
100.032
101.443
100.205
97.5638
99.0253
104.897
104.528
85.7031
49.994
14.3747
-4.46926
-5.10815
0.785808
2.71853
0.169397
-1.70347
-0.603747
1.06157
0.830204
-0.532683
-0.890939
0.0628749
0.783354
0.318963
-0.521696
-0.551703
0.162337
0.582835
0.194453
-0.407609
-0.429514
0.0945844
0.453598
0.221367
-0.261029
-0.389623
-0.0455334
0.324412
0.290993
-0.0707876
-0.32539
-0.201208
0.13239
0.298888
0.137611
-0.15423
-0.266384
-0.102443
0.150025
0.237254
0.0913387
-0.128572
-0.212479
-0.0976114
0.0942503
0.187949
0.113338
-0.0494626
-0.157147
-0.128936
-0.00209943
0.114127
0.133153
0.0523495
-0.0575817
-0.11545
-0.0877861
-0.00471822
0.0718576
0.0934298
0.0546137
-0.0121676
-0.0630157
-0.0707662
-0.0385591
0.0101299
0.0456617
0.0527488
0.0328882
1.90302e-05
-0.0257075
-0.0371458
-0.0286215
-0.0107531
0.00690211
0.021455
0.0192126
0.0170511
0.00441359
-0.00586405
100.042
99.9768
99.8513
100.083
100.272
99.8677
99.5713
100.163
100.645
99.8409
99.0344
100.085
101.491
100.157
97.5041
99.0633
104.968
104.506
85.6232
49.9933
14.457
-4.44134
-5.18313
0.729494
2.77359
0.249328
-1.72588
-0.695127
1.04245
0.913971
-0.471909
-0.944753
-0.0270782
0.788636
0.412731
-0.472617
-0.616795
0.0730026
0.591815
0.289883
-0.353144
-0.487867
-0.000615201
0.443743
0.309056
-0.185565
-0.419064
-0.143487
0.275407
0.348066
0.0251092
-0.300469
-0.274226
0.0435995
0.29107
0.217593
-0.072321
-0.267229
-0.183185
0.072042
0.238392
0.168125
-0.0511249
-0.206204
-0.165611
0.0155322
0.167784
0.166431
0.0288989
-0.119156
-0.159764
-0.0736697
0.0592606
0.135221
0.106124
0.00575244
-0.0875751
-0.111723
-0.0603483
0.0233161
0.0819649
0.0839258
0.036182
-0.0254437
-0.0643015
-0.0630125
-0.0284845
0.0141298
0.0440924
0.0466565
0.0282563
0.000512511
-0.0235356
-0.0301011
-0.0273752
-0.010321
0.00431348
0.0129631
0.0208746
0.00970468
99.9968
100.084
99.9326
99.821
100.132
100.296
99.8144
99.5479
100.22
100.672
99.7819
98.9997
100.143
101.537
100.104
97.4447
99.1055
105.041
104.482
85.5406
49.9926
14.5423
-4.41078
-5.25961
0.668489
2.82724
0.334453
-1.74311
-0.789811
1.01486
0.996557
-0.401667
-0.991292
-0.123565
0.781322
0.505858
-0.409611
-0.671825
-0.0250833
0.583482
0.382703
-0.281495
-0.530651
-0.102808
0.411606
0.386824
-0.0940557
-0.424792
-0.238882
0.203341
0.382559
0.125565
-0.247706
-0.326741
-0.0553708
0.252319
0.278615
0.0232323
-0.235045
-0.244897
-0.0204822
0.205059
0.223633
0.0387392
-0.164996
-0.207971
-0.0699277
0.11435
0.188421
0.104546
-0.0534904
-0.155237
-0.130217
-0.0120907
0.102481
0.132863
0.0689538
-0.0338252
-0.102554
-0.0978634
-0.0331788
0.0431656
0.0842151
0.0713716
0.0211857
-0.0335864
-0.061941
-0.0548296
-0.02197
0.0166057
0.0390515
0.0425755
0.0240883
0.00155565
-0.0176552
-0.028241
-0.0202554
-0.0148264
0.0026929
0.0103677
99.9628
100.041
100.11
99.884
99.8033
100.185
100.31
99.7568
99.5333
100.282
100.692
99.7176
98.9699
100.207
101.58
100.046
97.3857
99.152
105.115
104.455
85.4549
49.9919
14.6306
-4.37746
-5.3375
0.602686
2.87917
0.424675
-1.75469
-0.887286
0.978474
1.07697
-0.32222
-1.02936
-0.225384
0.76068
0.596252
-0.333259
-0.714571
-0.12954
0.556891
0.469282
-0.194358
-0.554863
-0.20756
0.35729
0.449574
0.00905403
-0.404766
-0.32483
0.112031
0.390133
0.222277
-0.170018
-0.352273
-0.155016
0.184807
0.312396
0.121668
-0.171866
-0.278027
-0.115249
0.140174
0.247868
0.126894
-0.0940282
-0.215618
-0.146281
0.0365387
0.173233
0.161014
0.0263056
-0.114916
-0.157324
-0.0824226
0.0423786
0.124349
0.11404
0.030542
-0.0623114
-0.105049
-0.0791559
-0.0100454
0.0550952
0.0807377
0.0591057
0.00959389
-0.0363296
-0.058136
-0.0470994
-0.0176453
0.0150001
0.0359157
0.0349151
0.0248763
0.0013944
-0.012559
-0.0203966
-0.0232589
-0.00743762
99.9924
99.9389
100.089
100.122
99.8325
99.798
100.241
100.313
99.6958
99.528
100.347
100.704
99.6484
98.9456
100.276
101.621
99.9817
97.3272
99.203
105.191
104.426
85.3663
49.9912
14.7219
-4.34128
-5.4167
0.531987
2.92906
0.519863
-1.7602
-0.986985
0.933048
1.1542
-0.23396
-1.05783
-0.331172
0.726197
0.681753
-0.244511
-0.743019
-0.237638
0.511676
0.545997
-0.0941855
-0.558155
-0.310019
0.282102
0.492741
0.118289
-0.358544
-0.394662
0.00704901
0.368385
0.306706
-0.0728626
-0.34659
-0.245113
0.094081
0.313325
0.211143
-0.083951
-0.276366
-0.198834
0.051687
0.235246
0.19862
-0.00405976
-0.185364
-0.198512
-0.0513074
0.122305
0.185172
0.102715
-0.0468971
-0.147217
-0.133644
-0.0299557
0.0819074
0.127526
0.0865075
-0.00280601
-0.0791437
-0.0990104
-0.0595594
0.00693133
0.0606764
0.0737493
0.0483047
0.00264248
-0.0367275
-0.0511553
-0.0426027
-0.0138765
0.0115373
0.0294533
0.0328117
0.0184687
0.00933688
-0.0116245
-0.0146521
100.03
99.9452
99.9304
100.138
100.121
99.7799
99.8049
100.298
100.305
99.6326
99.5323
100.417
100.709
99.5748
98.927
100.351
101.658
99.9125
97.2696
99.2586
105.269
104.394
85.2745
49.9904
14.8163
-4.30213
-5.49709
0.456309
2.97656
0.619849
-1.75919
-1.08829
0.878404
1.22718
-0.137423
-1.07564
-0.439412
0.677612
0.760183
-0.144701
-0.755444
-0.346357
0.448104
0.609374
0.0158536
-0.538997
-0.405126
0.188576
0.512618
0.227421
-0.287452
-0.442441
-0.104584
0.317206
0.370837
0.0360867
-0.308327
-0.315781
-0.0113158
0.279362
0.280176
0.018731
-0.238206
-0.258615
-0.0482743
0.185868
0.241124
0.0900845
-0.120985
-0.215499
-0.131973
0.0448737
0.170456
0.158126
0.033517
-0.101232
-0.151918
-0.0953449
0.0167043
0.104798
0.117033
0.057425
-0.0282741
-0.0858482
-0.0881037
-0.0424494
0.0186403
0.0600783
0.066669
0.0384816
-0.000285156
-0.0337987
-0.0459564
-0.0349154
-0.0165009
0.0111968
0.0213691
0.026617
0.0217055
0.00278327
100.017
100.036
99.8985
99.9368
100.186
100.106
99.7283
99.824
100.355
100.286
99.5684
99.5464
100.488
100.705
99.4973
98.9148
100.43
101.691
99.8378
97.2129
99.3189
105.348
104.359
85.1796
49.9895
14.9138
-4.2599
-5.57853
0.375589
3.02133
0.72443
-1.75127
-1.19054
0.814446
1.29487
-0.0332816
-1.08184
-0.548466
0.61494
0.829412
-0.0355218
-0.750484
-0.452486
0.367108
0.656254
0.131984
-0.49681
-0.48789
0.0804023
0.506643
0.329843
-0.194594
-0.463485
-0.214896
0.238953
0.407982
0.147563
-0.239343
-0.358634
-0.120656
0.212553
0.319218
0.123647
-0.166916
-0.284819
-0.145113
0.105906
0.246005
0.172059
-0.0329397
-0.192616
-0.188938
-0.0436416
0.118883
0.179209
0.10736
-0.0300153
-0.131857
-0.135945
-0.0531876
0.0521547
0.112763
0.0992268
0.0309731
-0.0446162
-0.0857121
-0.0750645
-0.0290784
0.0246954
0.0572994
0.0572233
0.0338211
-0.00351063
-0.0273878
-0.0398648
-0.0321524
-0.0118792
0.000523193
0.0219643
0.0175236
99.9786
100.062
100.027
99.855
99.9571
100.231
100.079
99.6797
99.855
100.411
100.256
99.5046
99.5708
100.561
100.692
99.4164
98.9094
100.515
101.719
99.7577
97.1575
99.3841
105.428
104.321
85.0816
49.9887
15.0144
-4.2145
-5.66089
0.289769
3.06303
0.833378
-1.73604
-1.29304
0.741156
1.35623
0.0776649
-1.07564
-0.656604
0.538472
0.887405
0.0810143
-0.727197
-0.552724
0.270272
0.683934
0.249969
-0.432028
-0.553653
-0.0377354
0.473615
0.419003
-0.084721
-0.454789
-0.315569
0.138362
0.413474
0.251557
-0.144675
-0.367798
-0.222201
0.118977
0.322024
0.217343
-0.070689
-0.272184
-0.224048
0.00682073
0.210969
0.227046
0.0634288
-0.132962
-0.210013
-0.124928
0.0408699
0.160367
0.156837
0.0490923
-0.0782345
-0.140516
-0.108235
-0.0149608
0.0750494
0.109629
0.079227
0.00999636
-0.0535806
-0.0801185
-0.0638111
-0.0181713
0.0253796
0.0526263
0.0499979
0.0271715
0.00106978
-0.0266164
-0.0291589
-0.0296228
-0.0147184
0.00457086
99.9771
99.99
100.101
100.003
99.8175
99.9899
100.27
100.039
99.6363
99.8974
100.462
100.214
99.4427
99.6055
100.635
100.671
99.3331
98.9113
100.603
101.744
99.6723
97.1038
99.4542
105.51
104.28
84.9804
49.9878
15.1182
-4.16583
-5.74401
0.198796
3.10131
0.94644
-1.71315
-1.39507
0.658588
1.41025
0.194502
-1.05634
-0.762028
0.448769
0.932266
0.202614
-0.685083
-0.643775
0.15979
0.690271
0.36527
-0.346109
-0.598322
-0.160376
0.413803
0.488801
0.036035
-0.415295
-0.398575
0.022239
0.385155
0.338226
-0.0321554
-0.340634
-0.304493
0.00815955
0.286558
0.287212
0.0384535
-0.220887
-0.272426
-0.0963783
0.140404
0.244484
0.150698
-0.0469058
-0.189971
-0.181724
-0.0470143
0.105134
0.169773
0.116455
-0.00462061
-0.107643
-0.133028
-0.076843
0.0153413
0.0860247
0.10067
0.0595548
-0.0038245
-0.0569454
-0.0724767
-0.0527131
-0.0139045
0.026814
0.0431917
0.0453787
0.023966
6.90946e-06
-0.014189
-0.0315706
-0.0176711
100.01
99.9403
100.015
100.132
99.9677
99.7887
100.034
100.3
99.9895
99.6
99.9504
100.508
100.163
99.3842
99.6507
100.707
100.639
99.2479
98.921
100.696
101.763
99.5816
97.052
99.5293
105.593
104.236
84.876
49.9869
15.2251
-4.11378
-5.82773
0.102627
3.13579
1.06334
-1.68225
-1.49588
0.566875
1.45592
0.316196
-1.02342
-0.862881
0.34667
0.962263
0.326733
-0.624116
-0.722422
0.0384388
0.673775
0.473187
-0.241527
-0.618575
-0.281502
0.329004
0.533963
0.160472
-0.346059
-0.456762
-0.100963
0.323667
0.398784
0.0882037
-0.278146
-0.357602
-0.107863
0.215423
0.323142
0.146133
-0.136735
-0.2817
-0.187368
0.0448749
0.220047
0.212469
0.0497029
-0.131778
-0.201416
-0.125578
0.0255634
0.142515
0.154991
0.0700552
-0.0461835
-0.120366
-0.115491
-0.0479822
0.0363523
0.0883696
0.0879301
0.0448385
-0.0140343
-0.0533604
-0.0658748
-0.0435975
-0.0101462
0.0202132
0.0415205
0.0329406
0.0268648
0.0017415
-0.0136292
100.025
99.9845
99.9143
100.051
100.152
99.9227
99.7708
100.087
100.32
99.9306
99.5728
100.013
100.546
100.101
99.3307
99.7061
100.778
100.598
99.1619
98.9389
100.792
101.776
99.4858
97.0025
99.6095
105.677
104.189
84.7684
49.9859
15.3351
-4.05823
-5.91188
0.00123142
3.16612
1.18374
-1.64303
-1.59467
0.466243
1.49226
0.441585
-0.976513
-0.957268
0.233302
0.975882
0.450602
-0.544785
-0.785625
-0.0904661
0.633712
0.569026
-0.12174
-0.61207
-0.394803
0.222552
0.55041
0.280699
-0.250328
-0.48445
-0.221706
0.232603
0.426366
0.20503
-0.185128
-0.374303
-0.215768
0.11584
0.318979
0.237425
-0.030671
-0.248956
-0.251037
-0.0602841
0.156728
0.236451
0.138275
-0.046388
-0.178913
-0.1771
-0.0601224
0.0810681
0.154638
0.126015
0.0269811
-0.0736833
-0.119762
-0.0948513
-0.0235843
0.0473627
0.0856232
0.074623
0.033033
-0.0163512
-0.0514718
-0.0535393
-0.0413076
-0.00698237
0.0160326
0.028967
0.0366447
0.0135408
100.001
100.048
99.9491
99.9016
100.095
100.159
99.8712
99.7658
100.146
100.329
99.8646
99.5566
100.084
100.576
100.029
99.2836
99.7715
100.845
100.547
99.0759
98.9655
100.891
101.783
99.385
96.9556
99.695
105.762
104.139
84.6576
49.9849
15.4483
-3.99908
-5.99628
-0.1054
3.19191
1.30731
-1.59521
-1.69061
0.35702
1.51835
0.569388
-0.915439
-1.04329
0.110094
0.971889
0.571291
-0.448132
-0.830643
-0.22314
0.570204
0.648311
0.00888165
-0.577651
-0.494003
0.0992555
0.535631
0.388637
-0.133481
-0.478008
-0.33009
0.118407
0.416856
0.30666
-0.0699345
-0.351136
-0.302488
-0.000937833
0.27368
0.298981
0.0825129
-0.177813
-0.276119
-0.157347
0.0648031
0.217148
0.201076
0.0490997
-0.118341
-0.189487
-0.131671
0.000229926
0.115417
0.147973
0.0915787
-0.00699422
-0.0886279
-0.110567
-0.074448
-0.0068319
0.0532059
0.0764422
0.0654269
0.023061
-0.0155289
-0.0432973
-0.050027
-0.0290008
-0.0156942
0.0161346
0.0219574
99.9775
100.036
100.056
99.9085
99.9037
100.142
100.151
99.8167
99.7751
100.208
100.323
99.7938
99.5527
100.161
100.595
99.9499
99.2445
99.8464
100.907
100.486
98.9908
99.0009
100.993
101.784
99.2795
96.9117
99.7856
105.848
104.085