/*--------------------------------*- C++ -*----------------------------------*\
  =========                 |
  \\      /  F ield         | OpenFOAM: The Open Source CFD Toolbox
   \\    /   O peration     | Website:  https://openfoam.org
    \\  /    A nd           | Version:  8
     \\/     M anipulation  |
\*---------------------------------------------------------------------------*/
FoamFile
{
    version     2.0;
    format      ascii;
    class       volVectorField;
    location    "18";
    object      U;
}
// * * * * * * * * * * * * * * * * * * * * * * * * * * * * * * * * * * * * * //

dimensions      [0 1 -1 0 0 0 0];

internalField   nonuniform List<vector> 
116
(
(0.00885807 -0.00590555 0)
(2.85894e-05 -0.0108057 0)
(0.028032 -0.00922322 0)
(-0.0011325 -0.0208111 0)
(0.0343665 0.0277949 0)
(-0.114399 0.0920562 0)
(0.00235234 -0.00332685 0)
(-0.0136022 -0.00541445 0)
(-0.0139035 0.00634672 0)
(-0.048915 0.0206698 0)
(-0.06398 0.0737704 0)
(-0.111617 0.0892775 0)
(0.000183791 0.00426536 0)
(-0.0134151 0.00707543 0)
(-0.0241747 0.0205803 0)
(-0.0466476 0.0361616 0)
(-0.0600463 0.092217 0)
(-0.0745479 0.109047 0)
(-0.00288175 0.00988154 0)
(-0.0151282 0.0211279 0)
(-0.0254755 0.0385424 0)
(-0.036245 0.0588653 0)
(-0.0425044 0.104052 0)
(-0.0290636 0.10723 0)
(3.26642e-05 0.0218522 0)
(-0.00816999 0.0296515 0)
(-0.0195878 0.040719 0)
(-0.0198485 0.0506345 0)
(-0.0234792 0.0857028 0)
(0.00874021 0.0845493 0)
(-0.00353848 0.0168745 0)
(-0.00374273 0.0404136 0)
(-0.0078379 0.0516406 0)
(-0.00309005 0.0625988 0)
(-0.00559466 0.0821991 0)
(0.0244871 0.0744435 0)
(0.00322105 0.031949 0)
(-0.00179223 0.0341576 0)
(-0.0124854 0.04182 0)
(-0.00171259 0.0436087 0)
(-0.00395888 0.054818 0)
(0.0323424 0.0458899 0)
(0.00235948 0.0116 0)
(0.00913816 0.0561626 0)
(0.0138139 0.0529602 0)
(0.0209202 0.0578109 0)
(0.0161139 0.0554099 0)
(0.0418928 0.0517168 0)
(-0.0651891 0.0263015 0)
(-0.0352713 0.0186577 0)
(-0.0554084 0.0294883 0)
(-0.0247587 0.033207 0)
(-0.0220114 0.0294936 0)
(0.012271 0.0311831 0)
(0.0525537 0.0987007 0)
(0.0862819 0.0569473 0)
(0.11309 0.0421343 0)
(0.163748 0.0328783 0)
(0.171168 0.0238695 0)
(0.218857 0.020068 0)
(-0.124945 0.149478 0)
(-0.107116 -0.0194875 0)
(-0.053114 -0.0643927 0)
(-0.0130861 -0.127839 0)
(-0.110974 0.13842 0)
(-0.0609387 -0.0486741 0)
(-0.0856405 -0.105547 0)
(0.00183716 -0.174512 0)
(-0.0742776 0.107513 0)
(-0.0142141 -0.0560366 0)
(-0.059683 -0.118071 0)
(0.000368342 -0.213886 0)
(-0.031243 0.0914585 0)
(0.0176971 -0.0578975 0)
(-0.0396175 -0.116632 0)
(0.0123985 -0.22903 0)
(0.0119789 0.0642107 0)
(0.0409495 -0.0517493 0)
(-0.0282182 -0.113875 0)
(0.0143755 -0.242883 0)
(0.0234393 0.0648846 0)
(0.0541566 -0.0146067 0)
(-0.0194763 -0.084285 0)
(0.0258818 -0.24225 0)
(0.0211316 0.0334604 0)
(0.0646025 -0.0196761 0)
(-0.0338117 -0.0921164 0)
(0.0319066 -0.247076 0)
(0.0221311 0.0448742 0)
(0.0548954 0.0380612 0)
(-0.0150948 -0.0372185 0)
(0.053242 -0.233082 0)
(0.0140584 0.0153061 0)
(0.0560981 0.00688024 0)
(0.0480784 -0.0977807 0)
(0.0792823 -0.238383 0)
(0.211976 0.0112153 0)
(0.248015 0.00126287 0)
(0.204426 -0.0243143 0)
(0.152267 -0.0722663 0)
(-0.010835 0.000535475 0)
(-0.0335902 -0.00339246 0)
(-0.0499279 0.00281393 0)
(-0.0232837 -0.0210816 0)
(-0.015162 0.044857 0)
(-0.039883 0.0430504 0)
(-0.043021 -0.00924357 0)
(-0.014346 -0.0544482 0)
(-0.0413328 0.0560871 0)
(-0.0361371 0.0146956 0)
(-0.0331393 -0.017534 0)
(-0.0191987 -0.0843732 0)
(-0.00993707 0.125549 0)
(-0.0904448 0.0444766 0)
(0.00397406 -0.0246606 0)
(-0.0388549 -0.0984021 0)
)
;

boundaryField
{
    movingWall
    {
        type            fixedValue;
        value           uniform (1 0 0);
    }
    fixedWalls
    {
        type            noSlip;
    }
    frontAndBack
    {
        type            empty;
    }
}


// ************************************************************************* //
