0 	0 	0 	0
1.57135 	0.0046268 	-0.0118156 	0
3.1427 	-0.0376242 	0.033584 	0
4.71405 	-0.0680454 	0.0917357 	0
6.28539 	-0.0395936 	0.089141 	0
7.85674 	0.0015703 	0.0401761 	0
9.42809 	0.0410363 	-0.00738834 	0
10.9994 	0.057308 	-0.0460178 	0
12.5708 	0.120614 	-0.108688 	0
14.1421 	0.5 	0 	0
