/*--------------------------------*- C++ -*----------------------------------*\
  =========                 |
  \\      /  F ield         | OpenFOAM: The Open Source CFD Toolbox
   \\    /   O peration     | Website:  https://openfoam.org
    \\  /    A nd           | Version:  8
     \\/     M anipulation  |
\*---------------------------------------------------------------------------*/
FoamFile
{
    version     2.0;
    format      ascii;
    class       volScalarField;
    location    "0.85";
    object      T;
}
// * * * * * * * * * * * * * * * * * * * * * * * * * * * * * * * * * * * * * //

dimensions      [0 0 0 1 0 0 0];

internalField   nonuniform List<scalar> 
2500
(
49.9999
4.65245
-4.65215
-1.18267
1.18116
0.456072
-0.45182
-0.227601
0.217998
0.139849
-0.122073
-0.100461
0.0713906
0.0828172
-0.0397132
-0.0722551
0.0149403
0.0624395
0.00761583
-0.0520645
-0.0236469
0.03369
0.0372944
-0.0145058
-0.0392761
-0.00708327
0.0301544
0.0261014
-0.0151419
-0.0300262
-0.00741866
0.0220597
0.0252149
-0.00700627
-0.0234352
-0.0142568
0.00878344
0.0260177
0.00631884
-0.0132487
-0.0171719
-0.0103813
0.0161287
0.0183102
0.00141869
-0.00528319
-0.0190977
-0.00992759
0.013911
0.00919321
95.3477
49.9997
10.4872
-4.65128
-2.81931
1.17729
1.13545
-0.443638
-0.584659
0.201115
0.362656
-0.0949048
-0.254873
0.0301297
0.195485
0.0164128
-0.151999
-0.0532822
0.10867
0.0836878
-0.0651843
-0.0956641
0.0131571
0.0937478
0.0306539
-0.065444
-0.0646583
0.0222803
0.0745456
0.0206149
-0.0476006
-0.0575133
0.00703265
0.0601413
0.029872
-0.0201985
-0.0540073
-0.0228739
0.0388272
0.0381491
0.0145085
-0.0278386
-0.0499432
0.000279979
0.0257424
0.0290912
0.0250961
-0.0304278
-0.0370112
-0.00303694
104.652
89.5132
49.9994
12.1241
-4.64938
-3.49798
1.17048
1.49355
-0.430342
-0.807375
0.176257
0.51939
-0.056982
-0.370827
-0.0226421
0.278341
0.0850194
-0.205335
-0.128803
0.126292
0.159637
-0.0482142
-0.15946
-0.0296832
0.126378
0.0912956
-0.0620087
-0.122444
-0.00991402
0.099369
0.0748651
-0.0356197
-0.105091
-0.0282177
0.0643957
0.0760642
0.0141792
-0.0812271
-0.0603483
0.0164057
0.055023
0.06622
-0.018044
-0.0717959
-0.029414
-0.00574143
0.0523951
0.0663085
-0.0210209
-0.0331613
101.183
104.651
87.8766
49.9988
12.8036
-4.64631
-3.85539
1.15969
1.71888
-0.41144
-0.96525
0.141926
0.640295
-0.00823232
-0.461041
-0.0868569
0.33682
0.164758
-0.235375
-0.206214
0.114633
0.232339
-0.00670277
-0.207085
-0.0887456
0.129204
0.160813
-0.0336816
-0.164715
-0.0624807
0.0928122
0.138234
-0.00100213
-0.129859
-0.0769034
0.0312584
0.121071
0.0636046
-0.0780454
-0.0871948
-0.0426841
0.0527757
0.1157
0.00963441
-0.0527876
-0.064822
-0.0649527
0.0592868
0.0866513
0.0114953
98.8182
102.82
104.65
87.1979
49.9979
13.1626
-4.64167
-4.07988
1.14419
1.88171
-0.385766
-1.0887
0.0975484
0.73867
0.0518974
-0.531228
-0.162165
0.373742
0.251693
-0.240987
-0.282574
0.0760905
0.295973
0.0534049
-0.229366
-0.16068
0.103982
0.225912
0.0156879
-0.177429
-0.132076
0.0585362
0.191608
0.0496886
-0.115076
-0.133598
-0.0292565
0.146136
0.10873
-0.0301142
-0.0958655
-0.120051
0.0305694
0.129702
0.0522359
0.0115065
-0.0927193
-0.120913
0.0367504
0.0599255
99.5447
98.8208
103.499
104.646
86.8403
49.9963
13.39
-4.63539
-4.24163
1.12303
2.0126
-0.352456
-1.19216
0.0434513
0.81949
0.124608
-0.585175
-0.245393
0.388769
0.341741
-0.220836
-0.355911
0.017811
0.340068
0.129197
-0.222823
-0.238955
0.0581978
0.267439
0.0861397
-0.158025
-0.207256
0.00730364
0.210144
0.113737
-0.0606844
-0.18618
-0.0937155
0.12821
0.136451
0.0577405
-0.0865225
-0.177859
-0.0101441
0.0863714
0.100205
0.0958139
-0.0956936
-0.13296
-0.0159449
100.452
98.8659
98.8259
103.859
104.641
86.6157
49.9939
13.5568
-4.62785
-4.37088
1.09533
2.12667
-0.311469
-1.28285
-0.019586
0.884528
0.210968
-0.626767
-0.330886
0.379166
0.433855
-0.177985
-0.422538
-0.0522269
0.354428
0.2214
-0.194608
-0.309592
-0.00342181
0.272711
0.177741
-0.118315
-0.266618
-0.053975
0.180403
0.189912
0.0126751
-0.215044
-0.141873
0.0565147
0.148687
0.15642
-0.0643824
-0.182349
-0.0663789
-0.00231886
0.142264
0.155611
-0.0665185
-0.0845895
100.228
100.443
98.5086
98.834
104.086
104.632
86.4535
49.9902
13.695
-4.61956
-4.48259
1.06011
2.23272
-0.262945
-1.36438
-0.0923133
0.935905
0.310725
-0.657288
-0.415614
0.342529
0.52941
-0.118621
-0.474333
-0.134458
0.337883
0.327239
-0.152294
-0.356184
-0.0866039
0.245132
0.281736
-0.06805
-0.288329
-0.131832
0.109905
0.269797
0.0838703
-0.197096
-0.175526
-0.0608214
0.153392
0.231281
-0.0223577
-0.126452
-0.141273
-0.103868
0.16497
0.167024
0.0033352
99.7803
100.587
100.429
98.2851
98.8455
104.252
104.619
86.3227
49.9847
13.8207
-4.60973
-4.58537
1.01659
2.3342
-0.204234
-1.43935
-0.175396
0.973421
0.422452
-0.671943
-0.501943
0.281173
0.62164
-0.042376
-0.502131
-0.233942
0.296683
0.42916
-0.0881614
-0.369066
-0.196127
0.194701
0.370308
0.00246998
-0.259368
-0.23128
0.0170751
0.320316
0.149067
-0.110847
-0.203034
-0.194968
0.133936
0.248419
0.0612093
-0.0178513
-0.21667
-0.18856
0.127178
0.120263
99.8616
99.7947
100.812
100.409
98.1251
98.8598
104.39
104.603
86.2093
49.9756
13.942
-4.59736
-4.68322
0.965099
2.42892
-0.130734
-1.51093
-0.263304
0.990239
0.545145
-0.666595
-0.589799
0.204075
0.690819
0.0587755
-0.506628
-0.340732
0.23635
0.497628
0.0126405
-0.354242
-0.310288
0.127356
0.403992
0.106725
-0.189217
-0.325565
-0.0725692
0.293375
0.207633
0.0306272
-0.214103
-0.28317
0.0645658
0.180947
0.171101
0.105594
-0.233306
-0.203918
0.00877877
100.121
99.6399
99.8167
100.974
100.38
97.9997
98.8769
104.514
104.58
86.1077
49.962
14.0636
-4.58447
-4.77684
0.907774
2.51486
-0.0413439
-1.5842
-0.345125
0.978977
0.681058
-0.649431
-0.671802
0.120913
0.723534
0.189741
-0.505717
-0.428806
0.157489
0.521988
0.149418
-0.33691
-0.389458
0.0445609
0.374512
0.240193
-0.120004
-0.373764
-0.137695
0.184344
0.266
0.161379
-0.206221
-0.276829
-0.0444842
0.0696164
0.265239
0.162091
-0.177065
-0.131487
100.102
100.093
99.4843
99.8465
101.103
100.341
97.8949
98.8977
104.634
104.547
86.0138
49.9453
14.1906
-4.57392
-4.86953
0.845975
2.59625
0.0629401
-1.66387
-0.419782
0.941701
0.835849
-0.630821
-0.74345
0.0267458
0.731401
0.347434
-0.51074
-0.488387
0.0486344
0.527045
0.308281
-0.328155
-0.422886
-0.0708904
0.319423
0.391501
-0.0741167
-0.363436
-0.207647
0.0337425
0.34693
0.245008
-0.171109
-0.217988
-0.197422
-0.0122769
0.342861
0.155451
-0.065825
99.9259
100.26
100.054
99.3661
99.8856
101.215
100.29
97.8022
98.9224
104.757
104.505
85.9212
49.9256
14.3264
-4.55983
-4.96968
0.778437
2.67332
0.188995
-1.74653
-0.50122
0.884062
1.00385
-0.593651
-0.809072
-0.0940094
0.724689
0.517427
-0.488017
-0.535116
-0.104301
0.52305
0.465749
-0.278638
-0.425969
-0.241178
0.252643
0.521815
0.00299494
-0.280522
-0.32431
-0.140473
0.399015
0.300585
-0.0333825
-0.140512
-0.392383
-0.0983035
0.330306
0.162665
99.9187
99.9647
100.379
100.001
99.2705
99.932
101.32
100.226
97.7178
98.9464
104.888
104.455
85.8284
49.8986
14.4663
-4.52956
-5.08131
0.70953
2.72706
0.348052
-1.82378
-0.589924
0.805427
1.15325
-0.503683
-0.873979
-0.223993
0.681552
0.664932
-0.390163
-0.579115
-0.264169
0.471287
0.571426
-0.135773
-0.403676
-0.408498
0.150127
0.53696
0.147201
-0.12184
-0.418402
-0.282916
0.300199
0.28649
0.19846
-0.0186364
-0.46457
-0.181185
0.108426
100.039
99.806
100.015
100.476
99.9373
99.1935
99.9832
101.419
100.151
97.6454
98.9659
105.024
104.398
85.7436
49.8648
14.6012
-4.48435
-5.20107
0.656752
2.73898
0.538293
-1.90547
-0.65852
0.710686
1.25891
-0.363757
-0.952529
-0.305507
0.585745
0.77018
-0.239252
-0.633633
-0.346299
0.355534
0.605608
0.0551355
-0.395683
-0.463075
0.0364915
0.424181
0.306164
-0.00666078
-0.414708
-0.285641
0.0911922
0.217015
0.346441
0.025089
-0.324177
-0.142829
100.074
99.9818
99.7228
100.076
100.551
99.8606
99.1356
100.041
101.511
100.059
97.5888
98.988
105.164
104.323
85.6672
49.8362
14.7349
-4.43929
-5.33537
0.628884
2.72819
0.751166
-2.01507
-0.703811
0.612237
1.35259
-0.206252
-1.06621
-0.335444
0.458213
0.883494
-0.0907271
-0.723736
-0.358569
0.202973
0.655885
0.237041
-0.453592
-0.435479
-0.089397
0.326782
0.493751
-0.0157813
-0.381792
-0.252036
-0.117842
0.275948
0.423869
-0.0575162
-0.173293
99.983
100.157
99.912
99.6659
100.149
100.609
99.7665
99.095
100.112
101.599
99.943
97.5395
99.0229
105.314
104.231
85.5766
49.8215
14.8799
-4.38344
-5.50227
0.600059
2.7249
0.991144
-2.12828
-0.779498
0.502319
1.46857
-0.0217504
-1.17889
-0.404803
0.303465
1.03733
0.0796915
-0.788961
-0.421747
-0.00776477
0.757253
0.440435
-0.455096
-0.431821
-0.33646
0.258153
0.711664
0.0425626
-0.262753
-0.363378
-0.420806
0.355131
0.516533
0.0600715
99.9374
100.052
100.212
99.8286
99.6289
100.234
100.656
99.6553
99.0637
100.193
101.695
99.8083
97.4862
99.0609
105.483
104.142
85.4563
49.8086
15.0208
-4.27445
-5.69898
0.550462
2.70319
1.25192
-2.16857
-0.914991
0.376826
1.53679
0.216051
-1.19674
-0.547223
0.12393
1.10922
0.302259
-0.700574
-0.544087
-0.255778
0.737888
0.608716
-0.230861
-0.392043
-0.611898
0.0801587
0.698021
0.237904
0.0757236
-0.407041
-0.668289
0.142142
0.314771
99.9922
99.8888
100.13
100.245
99.7388
99.6084
100.323
100.695
99.5387
99.0412
100.27
101.796
99.6701
97.4393
99.0823
105.657
104.069
85.3349
49.79
15.1199
-4.11193
-5.90081
0.524735
2.6172
1.4952
-2.13244
-1.06067
0.297817
1.46751
0.47006
-1.13755
-0.67119
0.0157628
0.985641
0.50981
-0.524954
-0.620653
-0.346592
0.5215
0.625325
0.0551998
-0.326972
-0.604598
-0.0776555
0.385074
0.341404
0.292427
-0.278647
-0.462718
-0.0839076
100.054
99.9156
99.8675
100.209
100.253
99.6515
99.6102
100.409
100.711
99.4261
99.0407
100.343
101.876
99.5294
97.4201
99.1024
105.812
103.982
85.2406
49.7906
15.1912
-3.96338
-6.11165
0.561986
2.50989
1.71616
-2.12667
-1.1935
0.309102
1.34142
0.718313
-1.15466
-0.757029
0.030238
0.805177
0.718322
-0.481169
-0.703596
-0.249721
0.300751
0.677387
0.193262
-0.458333
-0.424035
-0.119933
0.207001
0.503184
0.136859
-0.330505
-0.178529
100.024
100.067
99.8402
99.8775
100.287
100.228
99.5657
99.6434
100.5
100.692
99.3056
99.07
100.439
101.924
99.3638
97.4156
99.1663
105.957
103.855
85.1312
49.8276
15.3062
-3.85252
-6.35708
0.578486
2.46925
1.97335
-2.16816
-1.37009
0.288273
1.30441
1.02501
-1.23108
-0.894107
-0.0336914
0.721687
1.05233
-0.485842
-0.838827
-0.308926
0.0879422
0.96009
0.379472
-0.594398
-0.418094
-0.429938
0.179119
0.910759
0.145836
-0.277598
99.9649
100.099
100.047
99.7669
99.9173
100.368
100.173
99.4734
99.7013
100.61
100.648
99.1617
99.11
100.57
101.971
99.1646
97.3851
99.2696
106.131
103.73
84.9481
49.8637
15.4689
-3.6945
-6.6083
0.467189
2.4688
2.25598
-2.09144
-1.58721
0.103907
1.29789
1.34699
-1.11246
-1.03395
-0.325677
0.611543
1.35239
-0.249438
-0.782512
-0.613155
-0.273916
1.07998
0.648392
-0.250951
-0.357838
-0.944248
-0.126405
0.89747
0.384622
99.9618
99.9852
100.168
100.002
99.6987
99.9743
100.451
100.102
99.381
99.7605
100.732
100.603
99.0138
99.1337
100.705
102.046
98.9655
97.332
99.34
106.339
103.654
84.7408
49.8584
15.5758
-3.43959
-6.80679
0.312542
2.40344
2.43381
-1.82487
-1.76087
-0.0919024
1.17239
1.47883
-0.753993
-1.06878
-0.563484
0.399274
1.2728
0.129326
-0.50184
-0.74803
-0.495416
0.704962
0.621621
0.26059
-0.0945538
-0.894176
-0.344244
0.222722
100.015
99.902
100.027
100.222
99.9419
99.6495
100.037
100.518
100.024
99.3163
99.8132
100.838
100.546
98.908
99.1504
100.814
102.103
98.8027
97.3177
99.3511
106.53
103.574
84.625
49.8417
15.5979
-3.19747
-6.98685
0.296948
2.28744
2.49174
-1.57263
-1.92353
-0.0596183
0.993563
1.44368
-0.454273
-1.16232
-0.474086
0.280525
0.989218
0.380049
-0.488148
-0.644677
-0.279294
0.303904
0.51519
0.317844
-0.229469
-0.410469
-0.109041
100.041
99.9701
99.8674
100.085
100.246
99.8687
99.6366
100.112
100.546
99.9239
99.2975
99.8883
100.911
100.438
98.8487
99.2066
100.921
102.078
98.649
97.3664
99.3962
106.675
103.394
84.5836
49.8679
15.6866
-3.07855
-7.24301
0.36407
2.2349
2.6491
-1.49384
-2.19327
0.0516919
0.898684
1.60042
-0.320862
-1.48037
-0.359379
0.216181
1.04002
0.683011
-0.831175
-0.697983
-0.197144
0.1684
0.968216
0.31648
-0.672463
-0.346325
100.007
100.068
99.9081
99.8666
100.16
100.233
99.7735
99.6609
100.217
100.542
99.7813
99.3048
100.016
100.976
100.266
98.776
99.3228
101.077
101.997
98.4332
97.4128
99.5546
106.833
103.148
84.4475
49.9146
15.9432
-2.98059
-7.53871
0.239932
2.23766
3.01091
-1.40001
-2.46902
-0.13994
0.783676
2.02063
-0.085442
-1.67457
-0.591324
-0.16065
1.31177
1.18427
-0.800929
-0.756682
-0.767175
-0.202235
1.4768
0.689564
-0.305195
99.9685
100.068
100.062
99.833
99.8937
100.251
100.197
99.6572
99.7013
100.348
100.535
99.6049
99.3048
100.168
101.075
100.073
98.6535
99.443
101.28
101.969
98.1464
97.3999
99.7278
107.078
102.98
84.1625
49.9078
16.1915
-2.71661
-7.71776
-0.109305
2.17088
3.28383
-1.05697
-2.49973
-0.581589
0.534084
2.19343
0.323727
-1.34028
-0.908957
-0.702373
1.16557
1.35752
-0.144068
-0.365027
-1.24039
-0.729502
1.01047
0.680219
99.9722
99.9755
100.134
100.033
99.7601
99.9345
100.34
100.152
99.5496
99.739
100.47
100.535
99.4445
99.2982
100.284
101.197
99.9058
98.5483
99.4927
101.467
102.009
97.8933
97.3779
99.756
107.378
102.901
83.9354
49.8495
16.2096
-2.33207
-7.78772
-0.333566
2.04317
3.18746
-0.604428
-2.38725
-0.78824
0.379985
1.82551
0.619111
-0.885025
-0.947244
-0.692462
0.650961
0.952857
0.341987
-0.0642543
-0.890791
-0.529181
0.133575
100.017
99.9199
100.006
100.181
99.9856
99.7154
99.9867
100.396
100.09
99.4902
99.7878
100.551
100.497
99.3458
99.3272
100.356
101.257
99.7621
98.5509
99.5017
101.596
101.971
97.7685
97.4327
99.701
107.597
102.738
83.9405
49.8326
16.1359
-2.07794
-7.98731
-0.231022
1.99968
3.01068
-0.326227
-2.57778
-0.647207
0.500961
1.46259
0.820497
-1.03023
-0.984426
-0.173704
0.388974
0.867802
0.341899
-0.644275
-0.481833
0.00477107
100.032
99.9808
99.8943
100.058
100.192
99.9154
99.7161
100.067
100.403
99.9846
99.484
99.8892
100.598
100.372
99.2841
99.4325
100.457
101.195
99.5847
98.6311
99.6069
101.698
101.756
97.6862
97.5528
99.8199
107.684
102.398
83.9834
49.896
16.3378
-2.01503
-8.40063
-0.154436
2.01542
3.2733
-0.150794
-3.0841
-0.650988
0.484983
1.66381
1.33534
-1.48741
-1.2801
-0.216693
0.242872
1.67685
0.607948
-1.22836
-0.644691
100.008
100.049
99.9229
99.9046
100.134
100.166
99.814
99.7542
100.189
100.381
99.8238
99.4944
100.058
100.651
100.175
99.1815
99.602
100.637
101.09
99.3189
98.6688
99.8572
101.849
101.492
97.4493
97.6446
100.166
107.795
102.06
83.7252
49.9478
16.8133
-1.87043
-8.71245
-0.527634
1.87652
3.83795
0.200553
-3.2294
-1.06725
-0.100016
2.00849
2.00807
-1.25286
-1.2912
-1.11906
-0.376117
2.21529
1.15774
-0.418955
99.9766
100.063
100.035
99.8512
99.9414
100.225
100.119
99.6935
99.8039
100.33
100.365
99.6355
99.4918
100.237
100.747
99.9752
99.0262
99.7543
100.85
101.074
98.9917
98.6335
100.079
102.097
101.363
97.0615
97.6583
100.43
108.109
101.922
83.2397
49.8998
17.073
-1.43733
-8.64896
-1.12681
1.6013
3.95393
0.668228
-2.66347
-1.47492
-0.734783
1.75863
2.03245
-0.316287
-0.70001
-1.64888
-0.92324
1.3767
0.923525
99.9721
99.9916
100.119
99.9987
99.7887
99.9886
100.303
100.067
99.5972
99.8493
100.443
100.354
99.4856
99.4944
100.349
100.853
99.8164
98.9284
99.8109
101.015
101.122
98.7395
98.6279
100.089
102.384
101.31
96.8211
97.6364
100.379
108.525
101.863
83.0181
49.8145
16.8579
-0.931631
-8.51886
-1.32221
1.53813
3.41095
0.961601
-2.15007
-1.53041
-0.513052
1.13039
1.4266
0.233531
-0.503068
-1.0851
-0.408004
0.240648
100.009
99.9327
100.027
100.148
99.9497
99.7671
100.044
100.33
99.9993
99.5707
99.9094
100.491
100.291
99.425
99.5517
100.401
100.86
99.6898
98.9846
99.8263
101.096
101.037
98.6715
98.7322
100.022
102.539
101.102
96.9145
97.6657
100.283
108.713
101.585
83.2464
49.8237
16.6668
-0.705802
-8.86931
-1.05178
1.76936
3.0415
1.18826
-2.55404
-1.58503
0.231876
0.88174
1.50325
0.0953451
-1.49316
-0.536914
0.255999
100.025
99.9704
99.9287
100.077
100.129
99.885
99.8046
100.124
100.29
99.8914
99.6158
100.031
100.48
100.128
99.419
99.7081
100.477
100.703
99.538
99.1361
99.9784
101.113
100.734
98.6616
98.922
100.201
102.478
100.693
97.0366
97.8134
100.581
108.589
101.075
83.3906
49.9238
17.1221
-0.697266
-9.57032
-1.02676
1.76815
3.54997
1.75137
-3.32718
-1.94596
0.044523
0.897594
2.81372
0.240593
-2.29255
-0.88213
100.015
100.021
99.9199
99.9685
100.14
100.063
99.7983
99.8907
100.238
100.205
99.7318
99.6906
100.226
100.457
99.8903
99.3737
99.956
100.621
100.491
99.2821
99.2574
100.316
101.15
100.384
98.4381
99.1403
100.637
102.425
100.285
96.7441
98.0481
101.181
108.562
100.679
82.8851
49.9654
17.9384
-0.46932
-9.78901
-1.70468
1.15018
4.30762
2.47817
-3.06241
-2.1342
-1.38157
0.462799
3.69434
0.940619
-1.05724
99.9907
100.061
99.9801
99.867
100.037
100.209
99.9751
99.7024
99.9904
100.363
100.124
99.5494
99.757
100.425
100.479
99.6451
99.2772
100.186
100.8
100.383
98.9338
99.3232
100.604
101.331
100.16
98.0182
99.3071
100.948
102.697
100.017
96.1804
98.1927
101.496
109.031
100.596
82.0765
49.8732
18.1346
0.147124
-9.20944
-2.51453
0.525963
4.12337
2.6163
-1.67091
-1.77371
-2.28612
-0.116597
2.50971
1.08855
99.97
100.026
100.095
99.925
99.8331
100.104
100.254
99.895
99.6426
100.067
100.449
100.063
99.4262
99.8082
100.536
100.527
99.4629
99.2438
100.265
100.955
100.351
98.6996
99.3771
100.626
101.621
99.9959
97.8277
99.3142
100.922
103.16
99.8009
96.0211
98.092
101.303
109.693
100.536
81.9188
49.7716
17.4772
0.756047
-8.7782
-2.61232
0.828598
3.06958
2.16776
-0.827572
-1.69422
-1.30785
0.193223
0.608526
99.9939
99.9535
100.067
100.094
99.8795
99.8474
100.153
100.238
99.8339
99.669
100.123
100.445
99.9809
99.44
99.8748
100.549
100.469
99.3986
99.3598
100.243
100.99
100.208
98.7775
99.4529
100.547
101.693
99.7722
98.1073
99.234
100.864
103.219
99.5298
96.4909
97.9235
101.178
109.782
100.113
82.5739
49.812
17.0973
0.945621
-9.52322
-2.16598
1.70219
2.57046
2.41227
-1.58457
-2.78802
0.122673
0.81926
100.015
99.9593
99.9781
100.094
100.039
99.8539
99.929
100.186
100.133
99.7806
99.7923
100.204
100.327
99.8415
99.5636
100.035
100.507
100.22
99.4061
99.5955
100.35
100.812
99.9058
98.9943
99.6666
100.678
101.329
99.4902
98.4461
99.4294
101.12
102.662
99.192
96.8663
98.134
101.711
109.186
99.4349
82.9023
49.9423
18.036
0.919182
-10.8137
-2.21729
1.52167
3.3558
4.07678
-2.56761
-3.88997
-0.441015
100.019
99.9831
99.9413
100.048
100.103
99.9339
99.8407
100.07
100.217
99.9641
99.7074
99.9803
100.336
100.145
99.6381
99.6926
100.327
100.456
99.8911
99.3088
99.9072
100.646
100.55
99.5388
98.9674
100.136
100.983
100.91
99.0994
98.334
100.069
101.56
102.196
98.7299
96.4315
98.8031
102.575
108.881
98.998
81.926
49.9689
19.4985
1.24702
-10.806
-3.17919
-0.274116
4.23105
5.50302
-1.77521
-2.67747
100.013
100.032
99.9209
99.9432
100.14
100.098
99.8104
99.8343
100.224
100.25
99.7953
99.6134
100.171
100.472
100.012
99.3924
99.7884
100.612
100.476
99.6285
99.0591
100.223
100.899
100.536
99.1262
98.7287
100.604
101.22
100.995
98.5096
97.9808
100.611
101.856
102.566
98.0967
95.6457
99.2568
102.895
109.716
98.9668
80.477
49.8373
19.553
2.03972
-9.08538
-4.14117
-1.64716
3.6849
4.31205
0.372911
99.9806
100.06
100.022
99.8615
99.9638
100.21
100.081
99.719
99.8497
100.32
100.269
99.6783
99.5708
100.278
100.55
99.9576
99.2215
99.8712
100.696
100.596
99.4403
98.9375
100.337
100.969
100.768
98.7508
98.7236
100.583
101.381
101.373
97.9999
98.0205
100.376
102.011
103.294
97.578
95.6551
98.8324
102.528
110.947
98.8878
80.4474
49.7245
17.8911
2.74383
-7.9481
-4.11602
-0.206993
2.15743
1.38428
99.9787
99.9973
100.087
99.9918
99.8463
100.003
100.22
100.033
99.71
99.9095
100.323
100.219
99.643
99.6586
100.279
100.519
99.8843
99.2955
99.9378
100.611
100.599
99.347
99.1749
100.201
100.954
100.727
98.7266
99.0707
100.2
101.501
101.227
98.0898
98.5128
99.7518
102.16
103.096
97.6062
96.607
98.0744
102.379
110.844
98.3139
82.0939
49.7921
16.9351
2.9134
-9.77003
-3.50819
2.84498
1.56011
99.9992
99.9696
100.031
100.063
99.944
99.8984
100.068
100.15
99.9365
99.7952
100.033
100.256
100.042
99.6921
99.8684
100.286
100.302
99.7505
99.5741
100.079
100.512
100.238
99.4075
99.5672
100.246
100.806
100.176
99.051
99.451
100.294
101.313
100.403
98.5757
98.9352
99.9988
102.141
101.786
97.9174
97.2423
98.4389
103.146
109.145
97.4756
83.0058
49.9461
19.0279
2.87727
-13.1293
-3.61788
2.53728
100.006
99.9665
100.008
100.073
99.9854
99.8848
100.007
100.16
100.017
99.8038
99.9245
100.23
100.148
99.783
99.7406
100.165
100.374
99.9434
99.5796
99.8086
100.467
100.387
99.7293
99.3821
99.8934
100.78
100.437
99.6029
99.0307
99.8207
101.128
100.808
99.71
98.3702
99.1428
101.381
101.909
100.848
97.4287
96.6287
100.236
104.238
108.114
96.9947
80.8896
49.9589
22.6331
3.30759
-12.9826
-4.78269
100.023
99.9692
99.9373
100.08
100.109
99.8846
99.8269
100.134
100.249
99.8827
99.6642
100.046
100.438
100.05
99.5521
99.7051
100.495
100.455
99.7054
99.3083
99.9469
100.929
100.28
99.4752
98.9635
100.272
101.286
100.283
99.3523
98.3069
100.369
101.756
100.779
99.5999
97.1141
99.469
102.341
102.103
101.426
95.7535
95.6474
101.471
104.53
109.981
96.9932
77.2915
49.7951
22.6932
4.25893
-5.82167
100.012
100.038
99.918
99.9284
100.146
100.12
99.807
99.8013
100.227
100.286
99.8068
99.5721
100.141
100.522
100.035
99.3977
99.6912
100.657
100.489
99.6963
99.019
100.114
100.992
100.444
99.3751
98.5697
100.575
101.185
100.771
99.1041
97.8015
100.682
101.454
101.687
99.5114
96.2806
99.753
101.549
103.198
102.446
94.5123
95.8912
99.9921
103.986
113.292
96.8773
77.2322
49.6729
15.7843
5.05572
99.9826
100.045
100.027
99.8931
99.9541
100.161
100.088
99.7901
99.8507
100.233
100.241
99.7852
99.6305
100.173
100.44
100.035
99.4026
99.8221
100.51
100.497
99.6847
99.1223
100.179
100.684
100.67
99.2268
98.917
100.37
100.849
101.167
98.8379
98.456
100.21
100.924
102.302
99.1112
97.3386
99.4332
100.165
104.044
101.9
95.7599
97.3384
97.0595
103.808
113.114
96.159
84.1154
49.7608
5.23572
99.9888
100.003
100.042
99.9861
99.9266
100.017
100.107
99.9949
99.8559
99.9815
100.166
100.08
99.8044
99.8675
100.159
100.238
99.8908
99.6773
100.017
100.304
100.248
99.6227
99.6841
100.116
100.474
100.254
99.3552
99.6938
100.072
100.743
100.407
99.1147
99.5414
99.8018
100.989
101.083
99.0037
99.1627
99.1157
100.547
102.715
99.8225
98.5245
98.2119
97.4646
104.755
105.999
95.1733
94.6357
49.9309
)
;

boundaryField
{
    left
    {
        type            fixedValue;
        value           uniform 100;
    }
    right
    {
        type            zeroGradient;
    }
    up
    {
        type            zeroGradient;
    }
    down
    {
        type            fixedValue;
        value           uniform 0;
    }
    frontAndBack
    {
        type            empty;
    }
}


// ************************************************************************* //
