/*--------------------------------*- C++ -*----------------------------------*\
  =========                 |
  \\      /  F ield         | OpenFOAM: The Open Source CFD Toolbox
   \\    /   O peration     | Website:  https://openfoam.org
    \\  /    A nd           | Version:  8
     \\/     M anipulation  |
\*---------------------------------------------------------------------------*/
FoamFile
{
    version     2.0;
    format      ascii;
    class       surfaceScalarField;
    location    "0.19";
    object      phi;
}
// * * * * * * * * * * * * * * * * * * * * * * * * * * * * * * * * * * * * * //

dimensions      [0 3 -1 0 0 0 0];

internalField   nonuniform List<scalar> 
760
(
1.42372e-08
-1.42388e-08
-2.22023e-08
3.64394e-08
-1.14225e-07
9.2023e-08
-2.45391e-07
1.31166e-07
-3.95927e-07
1.50536e-07
-5.47125e-07
1.51197e-07
-6.82886e-07
1.35761e-07
-7.90307e-07
1.07422e-07
-8.59819e-07
6.95119e-08
-8.85243e-07
2.5423e-08
-8.63934e-07
-2.13095e-08
-7.97036e-07
-6.68971e-08
-6.89785e-07
-1.07251e-07
-5.51738e-07
-1.38046e-07
-3.96781e-07
-1.54957e-07
-2.42657e-07
-1.54125e-07
-1.09699e-07
-1.32958e-07
-1.84185e-08
-9.12804e-08
1.56778e-08
-3.40962e-08
1.56778e-08
-3.41912e-08
1.99537e-08
-1.8028e-07
1.82527e-07
-4.33772e-07
3.45516e-07
-7.64056e-07
4.61452e-07
-1.13166e-06
5.18135e-07
-1.49651e-06
5.16052e-07
-1.82245e-06
4.61696e-07
-2.07952e-06
3.64496e-07
-2.24518e-06
2.35174e-07
-2.30492e-06
8.51647e-08
-2.25282e-06
-7.34156e-08
-2.09205e-06
-2.27662e-07
-1.8354e-06
-3.63907e-07
-1.50534e-06
-4.68102e-07
-1.13356e-06
-5.26737e-07
-7.59178e-07
-5.28507e-07
-4.25212e-07
-4.66925e-07
-1.72618e-07
-3.43874e-07
-3.07907e-08
-1.75924e-07
-1.51129e-08
-9.21721e-08
1.12126e-07
-3.56798e-07
4.47153e-07
-7.64149e-07
7.52866e-07
-1.26782e-06
9.65123e-07
-1.81376e-06
1.06407e-06
-2.34784e-06
1.05013e-06
-2.82099e-06
9.34848e-07
-3.19231e-06
7.35822e-07
-3.43087e-06
4.73729e-07
-3.51674e-06
1.71036e-07
-3.44185e-06
-1.48304e-07
-3.21067e-06
-4.58848e-07
-2.84071e-06
-7.33862e-07
-2.36265e-06
-9.46159e-07
-1.81944e-06
-1.06995e-06
-1.26388e-06
-1.08406e-06
-7.54158e-07
-9.76645e-07
-3.46801e-07
-7.51232e-07
-8.72918e-08
-4.35433e-07
-1.02405e-07
-1.45124e-07
2.57251e-07
-5.25172e-07
8.272e-07
-1.08106e-06
1.30875e-06
-1.7466e-06
1.63067e-06
-2.45308e-06
1.77054e-06
-3.13479e-06
1.73184e-06
-3.73341e-06
1.53347e-06
-4.20081e-06
1.20322e-06
-4.50069e-06
7.73607e-07
-4.60966e-06
2.80009e-07
-4.51806e-06
-2.39908e-07
-4.23069e-06
-7.46212e-07
-3.76757e-06
-1.19699e-06
-3.16414e-06
-1.54959e-06
-2.47071e-06
-1.76338e-06
-1.75024e-06
-1.80453e-06
-1.074e-06
-1.65289e-06
-5.14887e-07
-1.31034e-06
-1.39243e-07
-8.11078e-07
-2.41649e-07
-1.93503e-07
4.50754e-07
-6.84651e-07
1.31835e-06
-1.38494e-06
2.00905e-06
-2.20619e-06
2.45191e-06
-3.06403e-06
2.62838e-06
-3.88197e-06
2.54978e-06
-4.59438e-06
2.24588e-06
-5.14822e-06
1.75706e-06
-5.50394e-06
1.12933e-06
-5.63598e-06
4.12048e-07
-5.53328e-06
-3.42605e-07
-5.20008e-06
-1.07942e-06
-4.65685e-06
-1.74022e-06
-3.94125e-06
-2.26518e-06
-3.10837e-06
-2.59626e-06
-2.22954e-06
-2.68336e-06
-1.38903e-06
-2.4934e-06
-6.78194e-07
-2.02118e-06
-1.87678e-07
-1.30159e-06
-4.29327e-07
-2.39828e-07
6.90582e-07
-8.39983e-07
1.9185e-06
-1.68258e-06
2.85165e-06
-2.65597e-06
3.4253e-06
-3.65936e-06
3.63177e-06
-4.60593e-06
3.49635e-06
-5.42421e-06
3.06416e-06
-6.05819e-06
2.39104e-06
-6.46684e-06
1.53798e-06
-6.6235e-06
5.68709e-07
-6.51584e-06
-4.50266e-07
-6.14649e-06
-1.44877e-06
-5.53449e-06
-2.35222e-06
-4.71719e-06
-3.08248e-06
-3.75209e-06
-3.56136e-06
-2.71749e-06
-3.71797e-06
-1.71091e-06
-3.49998e-06
-8.44341e-07
-2.88775e-06
-2.36084e-07
-1.90985e-06
-6.65411e-07
-2.86641e-07
9.77222e-07
-9.96748e-07
2.62861e-06
-1.98144e-06
3.83633e-06
-3.10396e-06
4.54782e-06
-4.24662e-06
4.77443e-06
-5.31316e-06
4.56289e-06
-6.22818e-06
3.97918e-06
-6.93503e-06
3.09789e-06
-7.39322e-06
1.99617e-06
-7.57632e-06
7.51812e-07
-7.47092e-06
-5.55667e-07
-7.07702e-06
-1.84267e-06
-6.41002e-06
-3.01923e-06
-5.50401e-06
-3.98849e-06
-4.41581e-06
-4.64956e-06
-3.22846e-06
-4.90532e-06
-2.05237e-06
-4.67607e-06
-1.02224e-06
-3.91788e-06
-2.88192e-07
-2.6439e-06
-9.53603e-07
-3.36248e-07
1.31347e-06
-1.1601e-06
3.45246e-06
-2.2875e-06
4.96374e-06
-3.55421e-06
5.81453e-06
-4.82556e-06
6.04578e-06
-5.99775e-06
5.73508e-06
-6.99449e-06
4.97593e-06
-7.76181e-06
3.86521e-06
-8.26267e-06
2.49703e-06
-8.47277e-06
9.61911e-07
-8.37816e-06
-6.50275e-07
-7.97521e-06
-2.24562e-06
-7.27307e-06
-3.72137e-06
-6.29867e-06
-4.96289e-06
-5.10365e-06
-5.84458e-06
-3.77178e-06
-6.23719e-06
-2.4244e-06
-6.02345e-06
-1.2205e-06
-5.12179e-06
-3.47633e-07
-3.51677e-06
-1.30124e-06
-3.90905e-07
1.70438e-06
-1.33472e-06
4.39628e-06
-2.60465e-06
6.23367e-06
-4.00545e-06
7.21532e-06
-5.38614e-06
7.42647e-06
-6.63891e-06
6.98785e-06
-7.69144e-06
6.02846e-06
-8.49736e-06
4.67113e-06
-9.02724e-06
3.0269e-06
-9.26172e-06
1.19639e-06
-9.18747e-06
-7.24527e-07
-8.79637e-06
-2.63672e-06
-8.08836e-06
-4.42938e-06
-7.07815e-06
-5.97309e-06
-5.80562e-06
-7.11711e-06
-4.34853e-06
-7.69428e-06
-2.83448e-06
-7.5375e-06
-1.44692e-06
-6.50935e-06
-4.18045e-07
-4.54564e-06
-1.71928e-06
-4.5344e-07
2.15781e-06
-1.52564e-06
5.46847e-06
-2.93479e-06
7.64283e-06
-4.44997e-06
8.7305e-06
-5.90612e-06
8.88262e-06
-7.19755e-06
8.27928e-06
-8.26334e-06
7.09425e-06
-9.07169e-06
5.47949e-06
-9.60647e-06
3.56167e-06
-9.85717e-06
1.44709e-06
-9.81299e-06
-7.68704e-07
-9.46096e-06
-2.98875e-06
-8.78871e-06
-5.10162e-06
-7.79265e-06
-6.96916e-06
-6.49191e-06
-8.41785e-06
-4.94774e-06
-9.23846e-06
-3.28495e-06
-9.20028e-06
-1.70859e-06
-8.08571e-06
-5.0356e-07
-5.75067e-06
-2.22284e-06
-5.28362e-07
2.68618e-06
-1.73974e-06
6.67985e-06
-3.27812e-06
9.18121e-06
-4.87183e-06
1.03242e-05
-6.34728e-06
1.03581e-05
-7.61114e-06
9.54313e-06
-8.6247e-06
8.10782e-06
-9.38005e-06
6.23484e-06
-9.88135e-06
4.06298e-06
-1.01319e-05
1.69762e-06
-1.01261e-05
-7.74484e-07
-9.84661e-06
-3.26825e-06
-9.26621e-06
-5.68202e-06
-8.3565e-06
-7.87887e-06
-7.1048e-06
-9.66954e-06
-5.54076e-06
-1.08025e-05
-3.77073e-06
-1.09703e-05
-2.01218e-06
-9.84427e-06
-6.09689e-07
-7.15316e-06
-2.83253e-06
-6.23729e-07
3.30991e-06
-1.98758e-06
8.0437e-06
-3.63228e-06
1.08259e-05
-5.24248e-06
1.19344e-05
-6.6483e-06
1.17639e-05
-7.78535e-06
1.06802e-05
-8.65201e-06
8.97448e-06
-9.27539e-06
6.85821e-06
-9.68766e-06
4.47525e-06
-9.91094e-06
1.92089e-06
-9.9483e-06
-7.37118e-07
-9.77956e-06
-3.43699e-06
-9.36173e-06
-6.09985e-06
-8.63631e-06
-8.6043e-06
-7.54691e-06
-1.07589e-05
-6.07195e-06
-1.22775e-05
-4.27449e-06
-1.27678e-05
-2.36375e-06
-1.1755e-05
-7.44806e-07
-8.7721e-06
-3.57734e-06
-7.5417e-07
4.06408e-06
-2.28464e-06
9.57418e-06
-3.98756e-06
1.25288e-05
-5.50993e-06
1.34568e-05
-6.71071e-06
1.29647e-05
-7.57991e-06
1.15494e-05
-8.17161e-06
9.56618e-06
-8.55933e-06
7.24594e-06
-8.80952e-06
4.72543e-06
-8.96685e-06
2.07823e-06
-9.0461e-06
-6.57865e-07
-9.02735e-06
-3.45574e-06
-8.85401e-06
-6.27319e-06
-8.436e-06
-9.02231e-06
-7.66382e-06
-1.15311e-05
-6.44265e-06
-1.34986e-05
-4.75665e-06
-1.44538e-05
-2.76694e-06
-1.37447e-05
-9.22491e-07
-1.06166e-05
-4.49983e-06
-9.45318e-07
5.00939e-06
-2.64885e-06
1.12777e-05
-4.31166e-06
1.41916e-05
-5.57431e-06
1.47194e-05
-6.37204e-06
1.37624e-05
-6.78494e-06
1.19623e-05
-6.94242e-06
9.72366e-06
-6.97184e-06
7.27536e-06
-6.97499e-06
4.72859e-06
-7.01874e-06
2.12197e-06
-7.13077e-06
-5.45831e-07
-7.29577e-06
-3.29074e-06
-7.45042e-06
-6.11854e-06
-7.47938e-06
-8.99334e-06
-7.21911e-06
-1.17914e-05
-6.48359e-06
-1.42342e-05
-5.13396e-06
-1.58034e-05
-3.21524e-06
-1.56634e-05
-1.16446e-06
-1.26673e-05
-5.66429e-06
-1.23743e-06
6.24682e-06
-3.08366e-06
1.31239e-05
-4.50841e-06
1.56164e-05
-5.23555e-06
1.54466e-05
-5.35666e-06
1.38835e-05
-5.08362e-06
1.16893e-05
-4.63298e-06
9.27302e-06
-4.18157e-06
6.82395e-06
-3.8568e-06
4.40382e-06
-3.73951e-06
2.00467e-06
-3.86755e-06
-4.17787e-07
-4.23491e-06
-2.92338e-06
-4.7841e-06
-5.56935e-06
-5.39277e-06
-8.38467e-06
-5.85984e-06
-1.13243e-05
-5.90755e-06
-1.41864e-05
-5.23344e-06
-1.64775e-05
-3.66658e-06
-1.72303e-05
-1.50017e-06
-1.48337e-05
-7.16446e-06
-1.67391e-06
7.92073e-06
-3.5137e-06
1.49637e-05
-4.31595e-06
1.64186e-05
-4.08988e-06
1.52205e-05
-3.19443e-06
1.29881e-05
-2.00047e-06
1.04953e-05
-7.97193e-07
8.06973e-06
2.17042e-07
5.80971e-06
9.15782e-07
3.70508e-06
1.2231e-06
1.69736e-06
1.0996e-06
-2.94294e-07
5.38752e-07
-2.36253e-06
-4.24997e-07
-4.6056e-06
-1.69432e-06
-7.11535e-06
-3.0738e-06
-9.94484e-06
-4.23183e-06
-1.30284e-05
-4.69629e-06
-1.6013e-05
-3.96751e-06
-1.79591e-05
-1.94502e-06
-1.68562e-05
-9.10948e-06
-2.23076e-06
1.01515e-05
-3.59055e-06
1.63235e-05
-3.0783e-06
1.59064e-05
-1.34471e-06
1.34869e-05
8.95862e-07
1.07475e-05
3.15346e-06
8.23771e-06
5.13631e-06
6.08689e-06
6.68664e-06
4.25937e-06
7.72362e-06
2.6681e-06
8.20428e-06
1.2167e-06
8.10165e-06
-1.91664e-07
7.39693e-06
-1.65781e-06
6.08497e-06
-3.29364e-06
4.19758e-06
-5.22796e-06
1.85287e-06
-7.60014e-06
-6.62647e-07
-1.05129e-05
-2.79277e-06
-1.38829e-05
-3.66239e-06
-1.70894e-05
-2.41163e-06
-1.8107e-05
-1.15211e-05
-2.57385e-06
1.27253e-05
-2.18361e-06
1.59333e-05
7.17734e-07
1.3005e-05
4.46899e-06
9.73567e-06
8.13243e-06
7.08404e-06
1.13004e-05
5.06971e-06
1.38277e-05
3.55963e-06
1.56865e-05
2.40058e-06
1.68899e-05
1.46467e-06
1.74531e-05
6.53551e-07
1.73746e-05
-1.1317e-07
1.66288e-05
-9.12047e-07
1.51657e-05
-1.83049e-06
1.29222e-05
-2.98452e-06
9.86074e-06
-4.53864e-06
6.06123e-06
-6.71339e-06
1.91187e-06
-9.73357e-06
-1.55986e-06
-1.36177e-05
-2.45841e-06
-1.72085e-05
-1.39795e-05
-7.85011e-07
1.35104e-05
4.08075e-06
1.10675e-05
1.02974e-05
6.7884e-06
1.57933e-05
4.23973e-06
2.01575e-05
2.71983e-06
2.34574e-05
1.76986e-06
2.58599e-05
1.15706e-06
2.75205e-05
7.39996e-07
2.85529e-05
4.32258e-07
2.90253e-05
1.8121e-07
2.89611e-05
-4.89693e-08
2.83377e-05
-2.88666e-07
2.70809e-05
-5.73692e-07
2.50543e-05
-9.57897e-07
2.20511e-05
-1.53546e-06
1.78151e-05
-2.47735e-06
1.21721e-05
-4.09062e-06
5.47759e-06
-6.9232e-06
-1.29204e-07
-1.16017e-05
-1.41087e-05
1.35104e-05
2.45779e-05
3.13663e-05
3.5606e-05
3.83258e-05
4.00957e-05
4.12528e-05
4.19928e-05
4.2425e-05
4.26062e-05
4.25573e-05
4.22686e-05
4.16949e-05
4.0737e-05
3.92015e-05
3.67242e-05
3.26336e-05
2.57104e-05
1.41087e-05
)
;

boundaryField
{
    movingWall
    {
        type            calculated;
        value           uniform 0;
    }
    fixedWalls
    {
        type            calculated;
        value           uniform 0;
    }
    frontAndBack
    {
        type            empty;
        value           nonuniform List<scalar> 0();
    }
}


// ************************************************************************* //
