0 	-1.54277e-10
1.57135 	2.1211e-06
3.1427 	3.53938e-05
4.71405 	0.000180228
6.28539 	0.000561599
7.85674 	0.00132295
9.42809 	0.00261093
10.9994 	0.0046687
12.5708 	0.00835615
14.1421 	0.0378282
