/*--------------------------------*- C++ -*----------------------------------*\
  =========                 |
  \\      /  F ield         | OpenFOAM: The Open Source CFD Toolbox
   \\    /   O peration     | Website:  https://openfoam.org
    \\  /    A nd           | Version:  8
     \\/     M anipulation  |
\*---------------------------------------------------------------------------*/
FoamFile
{
    version     2.0;
    format      ascii;
    class       surfaceScalarField;
    location    "49.5";
    object      phi;
}
// * * * * * * * * * * * * * * * * * * * * * * * * * * * * * * * * * * * * * //

dimensions      [0 3 -1 0 0 0 0];

internalField   nonuniform List<scalar> 
880
(
-1.75095e-05
1.75095e-05
-3.66603e-05
1.91508e-05
-5.51944e-05
1.85341e-05
-7.27254e-05
1.7531e-05
-8.89154e-05
1.619e-05
-0.000103432
1.45163e-05
-0.000116041
1.26091e-05
-0.000126294
1.02532e-05
-0.000134485
8.19085e-06
-0.00013927
4.78477e-06
-0.000143316
4.04657e-06
1.63129e-06
-0.000144947
-1.9818e-05
3.73275e-05
-4.13982e-05
4.07311e-05
-6.22858e-05
3.94217e-05
-8.20604e-05
3.73056e-05
-0.000100373
3.45029e-05
-0.000116884
3.10268e-05
-0.000131325
2.70506e-05
-0.000143279
2.22066e-05
-0.000153049
1.79616e-05
-0.000159689
1.14243e-05
-0.000165591
9.94872e-06
5.84223e-07
-0.000164544
-2.05535e-05
5.7881e-05
-4.29389e-05
6.31165e-05
-6.45751e-05
6.10579e-05
-8.49837e-05
5.77142e-05
-0.000103722
5.32408e-05
-0.000120382
4.76875e-05
-0.000134598
4.12666e-05
-0.000146122
3.37304e-05
-0.000154398
2.62374e-05
-0.000159465
1.64917e-05
-0.000159795
1.02781e-05
-2.42929e-06
-0.000156781
-2.15994e-05
7.94804e-05
-4.51617e-05
8.66788e-05
-6.79933e-05
8.38894e-05
-8.96832e-05
7.94041e-05
-0.000109904
7.34614e-05
-0.000128238
6.60221e-05
-0.000144203
5.7231e-05
-0.000157442
4.69691e-05
-0.000167199
3.59953e-05
-0.000173389
2.26817e-05
-0.000174022
1.09105e-05
-6.10501e-06
-0.000170346
-2.29923e-05
0.000102473
-4.81001e-05
0.000111787
-7.23814e-05
0.000108171
-9.52942e-05
0.000102317
-0.000116302
9.44697e-05
-0.000135044
8.47641e-05
-0.000151192
7.33788e-05
-0.00016447
6.02469e-05
-0.000174342
4.58668e-05
-0.000181014
2.93541e-05
-0.000183153
1.30491e-05
-7.41749e-06
-0.00018184
-2.48138e-05
0.000127286
-5.19766e-05
0.000138949
-7.83594e-05
0.000134554
-0.000103627
0.000127585
-0.000127423
0.000118265
-0.000149165
0.000106506
-0.000168354
9.25676e-05
-0.00018448
7.63727e-05
-0.000196817
5.82045e-05
-0.000205068
3.76053e-05
-0.000207555
1.55358e-05
-9.86579e-06
-0.000205107
-2.69129e-05
0.000154199
-5.64524e-05
0.000168489
-8.49373e-05
0.000163039
-0.000111902
0.00015455
-0.00013672
0.000143083
-0.00015918
0.000128966
-0.000178912
0.000112299
-0.00019563
9.30906e-05
-0.000209039
7.16141e-05
-0.000218978
4.75442e-05
-0.000225381
2.19383e-05
-8.00901e-06
-0.000227237
-2.98101e-05
0.000184009
-6.26201e-05
0.000201299
-9.4666e-05
0.000195084
-0.000125339
0.000185223
-0.000154438
0.000172181
-0.000181182
0.00015571
-0.000205355
0.000136473
-0.000226284
0.00011402
-0.000243491
8.88213e-05
-0.000256116
6.01694e-05
-0.000263639
2.94605e-05
-7.73071e-06
-0.000263917
-3.18938e-05
0.000215903
-6.78189e-05
0.000237224
-0.000101641
0.000228906
-0.000135062
0.000218644
-0.000165231
0.00020235
-0.000193339
0.000183819
-0.00021823
0.000161364
-0.000239914
0.000135703
-0.000258479
0.000107387
-0.000273044
7.47345e-05
-0.000285794
4.22104e-05
-4.58396e-07
-0.000293067
-3.74407e-05
0.000253344
-7.77214e-05
0.000277505
-0.000118065
0.000269249
-0.000155251
0.00025583
-0.000191566
0.000238666
-0.000224538
0.000216791
-0.000255506
0.000192331
-0.00028284
0.000163037
-0.000307386
0.000131933
-0.000326704
9.40534e-05
-0.000342958
5.84636e-05
5.76633e-06
-0.000349182
-3.73276e-05
0.000290672
-8.28208e-05
0.000322998
-0.000123293
0.000309721
-0.000166546
0.000299084
-0.00020333
0.00027545
-0.000239383
0.000252843
-0.000270224
0.000223172
-0.000297816
0.000190629
-0.000322622
0.000156738
-0.000342824
0.000114255
-0.000363736
7.93758e-05
2.06256e-05
-0.000378595
-4.93295e-05
0.000340001
-9.81118e-05
0.00037178
-0.000149603
0.000361213
-0.000193649
0.00034313
-0.000238768
0.000320569
-0.000278629
0.000292704
-0.000317907
0.00026245
-0.000352551
0.000225273
-0.000386634
0.000190822
-0.00041477
0.000142391
-0.00044407
0.000108675
3.88562e-05
-0.0004623
-3.93142e-05
0.000379315
-0.000101121
0.000433587
-0.000150014
0.000410105
-0.000209128
0.000402244
-0.000254516
0.000365957
-0.000300481
0.000338669
-0.000337146
0.000299116
-0.000370347
0.000258474
-0.000399993
0.000220468
-0.000425245
0.000167644
-0.000453516
0.000136946
6.30621e-05
-0.000477722
-7.38265e-05
0.000453142
-0.000127987
0.000487747
-0.000193015
0.000475134
-0.000242085
0.000451314
-0.000295445
0.000419317
-0.000342525
0.000385749
-0.00038965
0.00034624
-0.000432077
0.000300901
-0.000475635
0.000264026
-0.000513646
0.000205654
-0.000558185
0.000181486
9.8698e-05
-0.000593821
-1.63735e-05
0.000469515
-0.000116297
0.000587671
-0.000181484
0.000540321
-0.000269593
0.000539424
-0.000328568
0.000478292
-0.000385016
0.000442196
-0.000425768
0.000386992
-0.000460077
0.00033521
-0.00048915
0.000293099
-0.000513428
0.000229933
-0.000541816
0.000209874
0.000126481
-0.0005696
-0.00014941
0.000618925
-0.000180055
0.000618316
-0.000252956
0.000613222
-0.000302697
0.000589165
-0.000358353
0.000533948
-0.000414974
0.000498816
-0.000466965
0.000438983
-0.000516689
0.000384934
-0.000565673
0.000342084
-0.000610771
0.00027503
-0.000665104
0.000264208
0.00017888
-0.000717503
7.62691e-05
0.000542656
-0.000129938
0.000824523
-0.000249774
0.000733057
-0.000378341
0.000717732
-0.00045811
0.000613717
-0.000514042
0.000554748
-0.000551905
0.000476847
-0.0005745
0.000407529
-0.000592336
0.000359919
-0.000602377
0.000285071
-0.000611712
0.000273543
0.000190235
-0.000623066
3.17029e-05
0.000510953
-3.08408e-08
0.000856257
-0.000103565
0.000836591
-0.000274927
0.000889094
-0.000361465
0.000700255
-0.00046972
0.000663003
-0.000540061
0.000547188
-0.000602133
0.000469601
-0.000651799
0.000409585
-0.00069343
0.000326702
-0.000740162
0.000320275
0.000239532
-0.000789459
-0.00133296
0.00184391
-0.00142055
0.000943852
-0.00153691
0.000952946
-0.0013847
0.000736887
-0.00129596
0.000611517
-0.001129
0.000496043
-0.00100704
0.00042523
-0.000871485
0.000334042
-0.0007604
0.000298501
-0.000658639
0.000224941
-0.000553793
0.000215429
0.000159886
-0.000474147
0.00184391
0.00278776
0.00374071
0.00447759
0.00508911
0.00558515
0.00601038
0.00634443
0.00664293
0.00686787
0.0070833
0.00724318
-0.000116521
4.88707e-05
-7.7297e-05
-9.14964e-05
2.1446e-05
-4.64707e-05
-7.58844e-05
-2.78283e-06
-1.28292e-05
-6.06508e-05
-2.1426e-05
6.19241e-06
-4.60466e-05
-3.63485e-05
2.17443e-05
-3.05785e-05
-4.74047e-05
3.19365e-05
-1.47713e-05
-5.45538e-05
3.87466e-05
-5.27484e-05
3.79771e-05
-0.000130638
1.49646e-05
-0.000103292
-5.89953e-06
-8.5634e-05
-2.04413e-05
-6.8422e-05
-3.8638e-05
-5.20994e-05
-5.2671e-05
-3.46944e-05
-6.48097e-05
-1.67868e-05
-7.24614e-05
-6.95351e-05
-0.000140808
-1.00856e-06
-0.000124511
-2.21964e-05
-0.000106994
-3.79588e-05
-8.80047e-05
-5.7627e-05
-6.75385e-05
-7.31373e-05
-4.52576e-05
-8.70906e-05
-2.19711e-05
-9.57478e-05
-9.15063e-05
-0.000154771
-1.65837e-05
-0.000138666
-3.83011e-05
-0.00012018
-5.64449e-05
-9.97094e-05
-7.80978e-05
-7.71459e-05
-9.57008e-05
-5.19689e-05
-0.000112268
-2.53617e-05
-0.000122355
-0.000116868
-0.000173181
-2.52427e-05
-0.000160361
-5.11213e-05
-0.000143201
-7.36048e-05
-0.000120772
-0.000100527
-9.52984e-05
-0.000121175
-6.44896e-05
-0.000143076
-3.19622e-05
-0.000154882
-0.00014883
-0.000196062
-3.42876e-05
-0.000182672
-6.45116e-05
-0.000164526
-9.17501e-05
-0.000139956
-0.000125097
-0.000111577
-0.000149554
-7.59958e-05
-0.000178657
-3.80735e-05
-0.000192805
-0.000186904
-0.000223931
-3.75941e-05
-0.000212083
-7.63596e-05
-0.000196406
-0.000107427
-0.000169138
-0.000152365
-0.000138477
-0.000180215
-9.47676e-05
-0.000222367
-4.88855e-05
-0.000238687
-0.000235789
-0.000260319
-4.11922e-05
-0.000248285
-8.83931e-05
-0.000231875
-0.000123837
-0.000202196
-0.000182044
-0.000167649
-0.000214762
-0.000116139
-0.000273876
-6.10112e-05
-0.000293815
-0.0002968
-0.00029766
-3.65988e-05
-0.00028884
-9.7213e-05
-0.000278504
-0.000134173
-0.00024707
-0.000213478
-0.000213107
-0.000248725
-0.000149575
-0.000337408
-8.3148e-05
-0.000360241
-0.000379948
-0.000354366
-3.14146e-05
-0.000347398
-0.000104181
-0.000338267
-0.000143304
-0.000305929
-0.000245816
-0.000268604
-0.000286051
-0.000193285
-0.000412727
-0.000111539
-0.000441988
-0.000491487
-0.000396847
-1.31626e-05
-0.000397807
-0.000103221
-0.000403733
-0.000137378
-0.000376534
-0.000273015
-0.000351526
-0.000311058
-0.000262561
-0.000501692
-0.000168724
-0.000535825
-0.000660211
-0.00048433
8.86711e-06
-0.0004913
-9.62516e-05
-0.000504609
-0.000124069
-0.0004836
-0.000294024
-0.000463091
-0.000331568
-0.00036426
-0.000600523
-0.000251959
-0.000648127
-0.00091217
-0.000513742
4.48878e-05
-0.000537261
-7.27334e-05
-0.000581343
-7.99869e-05
-0.000588386
-0.000286981
-0.000618635
-0.000301318
-0.000532222
-0.000686935
-0.000440406
-0.000739944
-0.00135258
-0.000644936
9.60029e-05
-0.000681486
-3.61831e-05
-0.000745342
-1.61319e-05
-0.000777378
-0.000254945
-0.000844929
-0.000233767
-0.000795241
-0.000736623
-0.000749754
-0.000785431
-0.00210233
-0.000615923
0.000142326
-0.000669979
1.7873e-05
-0.000773474
8.73636e-05
-0.000879896
-0.000148523
-0.0010926
-2.10628e-05
-0.00119681
-0.000632409
-0.00134581
-0.000636432
-0.00344814
-0.000794178
0.000219
-0.000875066
9.87609e-05
-0.00101009
0.000222383
-0.00116054
1.93513e-06
-0.00141291
0.000231304
-0.00160268
-0.000442635
-0.00163883
-0.000600281
-0.00508698
-0.000636771
0.000232704
-0.000682251
0.000144241
-0.000764294
0.000304427
-0.00096591
0.000203551
-0.00127857
0.000543965
-0.00162153
-9.96784e-05
-0.00116615
-0.00105566
-0.00625313
-0.0008558
0.000299045
-0.00095539
0.000243831
-0.00106973
0.000418769
-0.00127911
0.000412924
-0.00131709
0.000581952
-0.00144311
2.63394e-05
-0.000316101
-0.00218267
-0.00656923
-0.000326823
0.000151722
-0.000242829
0.000159837
8.49149e-05
9.10251e-05
0.000305764
0.000192075
0.000973516
-8.57999e-05
0.00142629
-0.000426433
0.00146208
-0.00221846
-0.00510715
0.0073949
0.00755474
0.00764577
0.00783784
0.00775204
0.00732561
0.00510715
-1.88909e-06
1.88909e-06
-3.60686e-06
1.71777e-06
-4.64717e-06
1.0403e-06
-4.93552e-06
2.88351e-07
-4.43105e-06
-5.04472e-07
-3.28194e-06
-1.14911e-06
-1.66239e-06
-1.61955e-06
-1.66239e-06
-2.22533e-06
4.11442e-06
-4.21679e-06
3.70924e-06
-5.38995e-06
2.21346e-06
-5.64134e-06
5.39742e-07
-5.0244e-06
-1.12142e-06
-3.70848e-06
-2.46503e-06
-1.87657e-06
-3.45146e-06
-3.53895e-06
-3.37181e-06
7.48623e-06
-6.25572e-06
6.59314e-06
-7.8463e-06
3.80404e-06
-8.20916e-06
9.02601e-07
-7.25667e-06
-2.0739e-06
-5.31677e-06
-4.40493e-06
-2.68127e-06
-6.08696e-06
-6.22023e-06
-4.04706e-06
1.15333e-05
-7.40347e-06
9.94955e-06
-9.12611e-06
5.52668e-06
-9.24864e-06
1.02514e-06
-8.045e-06
-3.27754e-06
-5.84872e-06
-6.60121e-06
-2.93308e-06
-9.00261e-06
-9.15331e-06
-7.72406e-06
1.92573e-05
-1.34338e-05
1.56593e-05
-1.58203e-05
7.91316e-06
-1.58321e-05
1.03695e-06
-1.35015e-05
-5.60817e-06
-9.65597e-06
-1.04467e-05
-4.80899e-06
-1.38496e-05
-1.39623e-05
-9.50949e-06
2.87668e-05
-1.62221e-05
2.23719e-05
-1.87345e-05
1.04256e-05
-1.81347e-05
4.37142e-07
-1.52619e-05
-8.48096e-06
-1.08588e-05
-1.48498e-05
-5.38285e-06
-1.93255e-05
-1.93452e-05
-2.14374e-05
5.02043e-05
-3.30947e-05
3.40291e-05
-3.46211e-05
1.1952e-05
-3.19595e-05
-2.22438e-06
-2.5852e-05
-1.45885e-05
-1.78566e-05
-2.28452e-05
-8.75249e-06
-2.84297e-05
-2.80976e-05
-2.70927e-05
-3.95343e-05
-4.04115e-05
-3.64435e-05
-2.92877e-05
-2.01964e-05
-9.87945e-06
)
;

boundaryField
{
    movingWall
    {
        type            calculated;
        value           uniform 0;
    }
    fixedWalls
    {
        type            calculated;
        value           uniform 0;
    }
    frontAndBack
    {
        type            empty;
        value           nonuniform List<scalar> 0();
    }
}


// ************************************************************************* //
