/*--------------------------------*- C++ -*----------------------------------*\
  =========                 |
  \\      /  F ield         | OpenFOAM: The Open Source CFD Toolbox
   \\    /   O peration     | Website:  https://openfoam.org
    \\  /    A nd           | Version:  8
     \\/     M anipulation  |
\*---------------------------------------------------------------------------*/
FoamFile
{
    version     2.0;
    format      ascii;
    class       surfaceScalarField;
    location    "70";
    object      phi;
}
// * * * * * * * * * * * * * * * * * * * * * * * * * * * * * * * * * * * * * //

dimensions      [0 3 -1 0 0 0 0];

internalField   nonuniform List<scalar> 
760
(
0.0004
8.53673e-20
0.0004
5.13562e-20
0.0004
6.65142e-20
0.0004
4.24819e-20
0.0004
6.55944e-20
0.0004
5.03673e-20
0.0004
4.3505e-20
0.0004
5.81698e-20
0.0004
9.18306e-20
0.0004
3.81354e-20
0.0004
5.52637e-20
0.0004
-6.33238e-20
0.0004
-7.67294e-20
0.0004
-2.35444e-20
0.0004
-1.16603e-20
0.0004
-3.00163e-20
0.0004
-3.47034e-20
0.0004
-6.40651e-20
0.0004
-7.9049e-20
-1.51166e-19
0.0004
3.6689e-20
0.0004
8.72139e-20
0.0004
5.65354e-20
0.0004
6.96202e-20
0.0004
4.57518e-20
0.0004
6.15057e-20
0.0004
6.19962e-20
0.0004
3.51577e-20
0.0004
2.77553e-20
0.0004
7.52681e-20
0.0004
-2.68417e-20
0.0004
-8.0895e-20
0.0004
-5.27038e-20
0.0004
-1.49976e-20
0.0004
8.32385e-21
0.0004
-5.06768e-20
0.0004
-9.31319e-20
0.0004
-7.7503e-20
0.0004
-4.42077e-20
-1.03201e-19
0.0004
-1.92421e-20
0.0004
7.34607e-20
0.0004
1.00402e-19
0.0004
1.06497e-19
0.0004
2.44455e-21
0.0004
-8.66998e-22
0.0004
4.21034e-20
0.0004
5.38585e-20
0.0004
5.36178e-20
0.0004
4.06444e-20
0.0004
6.27086e-21
0.0004
3.22551e-20
0.0004
-6.90742e-20
0.0004
-7.77751e-20
0.0004
-4.66561e-20
0.0004
9.36352e-21
0.0004
-8.26894e-20
0.0004
-9.21052e-20
0.0004
-1.05677e-19
-1.36747e-19
0.0004
-3.38437e-21
0.0004
9.3658e-20
0.0004
4.17146e-20
0.0004
1.28741e-20
0.0004
4.3214e-20
0.0004
2.9945e-20
0.0004
-2.39107e-20
0.0004
2.2683e-20
0.0004
1.54914e-20
0.0004
7.95969e-20
0.0004
3.1547e-20
0.0004
5.32929e-21
0.0004
-2.7598e-20
0.0004
-3.84736e-20
0.0004
-2.89381e-21
0.0004
-7.80111e-20
0.0004
-2.76575e-20
0.0004
-9.87875e-20
0.0004
-1.57834e-19
-1.36574e-19
0.0004
3.3733e-20
0.0004
2.67101e-20
0.0004
8.09516e-20
0.0004
4.21157e-20
0.0004
1.85302e-20
0.0004
-9.01614e-21
0.0004
-8.8494e-21
0.0004
-1.24226e-20
0.0004
1.04145e-20
0.0004
2.81911e-20
0.0004
3.32157e-20
0.0004
-7.51843e-20
0.0004
-8.70099e-20
0.0004
-3.53878e-20
0.0004
-9.78127e-21
0.0004
-6.97867e-20
0.0004
-7.40596e-20
0.0004
-7.83214e-20
0.0004
-1.25917e-19
-1.28969e-19
0.0004
4.39845e-20
0.0004
6.33138e-20
0.0004
1.22349e-19
0.0004
4.681e-20
0.0004
4.59808e-21
0.0004
1.60365e-20
0.0004
1.11477e-20
0.0004
-2.67133e-20
0.0004
-3.38391e-20
0.0004
-6.05307e-20
0.0004
-6.29212e-20
0.0004
-1.13741e-19
0.0004
-5.7839e-20
0.0004
-8.31567e-20
0.0004
-6.99119e-20
0.0004
-3.57e-20
0.0004
-7.17147e-20
0.0004
-7.14841e-20
0.0004
-1.18836e-19
-1.30312e-19
0.0004
4.96982e-20
0.0004
8.13307e-20
0.0004
8.20227e-20
0.0004
8.85063e-20
0.0004
2.41326e-20
0.0004
-1.5345e-20
0.0004
-4.62944e-21
0.0004
6.18821e-21
0.0004
-4.45952e-20
0.0004
-1.20744e-19
0.0004
-1.0265e-19
0.0004
-7.38973e-20
0.0004
-1.11541e-19
0.0004
-9.55528e-20
0.0004
-8.81224e-20
0.0004
-6.0001e-20
0.0004
-7.02217e-20
0.0004
-9.71739e-20
0.0004
-7.57844e-20
-8.14589e-20
0.0004
5.84051e-20
0.0004
5.07115e-20
0.0004
4.81771e-20
0.0004
8.43353e-20
0.0004
6.80902e-20
0.0004
7.39561e-20
0.0004
3.38474e-21
0.0004
-7.44891e-20
0.0004
-1.23741e-19
0.0004
-1.37538e-19
0.0004
-9.48924e-20
0.0004
-4.70849e-20
0.0004
-7.37431e-20
0.0004
-1.20269e-19
0.0004
-5.3505e-20
0.0004
-4.03577e-20
0.0004
-9.28657e-20
0.0004
-1.03709e-19
0.0004
-4.47213e-20
6.13252e-21
0.0004
5.04121e-20
0.0004
1.0407e-19
0.0004
4.98647e-22
0.0004
1.01025e-19
0.0004
9.34289e-20
0.0004
2.66892e-20
0.0004
-3.4024e-21
0.0004
-6.27734e-20
0.0004
-1.35977e-19
0.0004
-1.269e-19
0.0004
-7.31613e-20
0.0004
-5.28055e-20
0.0004
-7.33949e-20
0.0004
-8.24592e-20
0.0004
-1.07794e-19
0.0004
-7.94688e-20
0.0004
-9.40719e-20
0.0004
-3.57646e-20
0.0004
-2.7801e-20
1.62644e-21
0.0004
-1.32368e-20
0.0004
5.69163e-20
0.0004
3.14241e-20
0.0004
4.35436e-20
0.0004
6.35557e-20
0.0004
6.74752e-22
0.0004
-2.19985e-20
0.0004
-9.26003e-20
0.0004
-1.74147e-19
0.0004
-1.05304e-19
0.0004
-9.93368e-20
0.0004
-5.76034e-20
0.0004
-7.8449e-20
0.0004
-9.30244e-20
0.0004
-7.86544e-20
0.0004
-3.69074e-20
0.0004
-2.93315e-20
0.0004
-5.90834e-20
0.0004
-2.83367e-20
-2.2243e-20
0.0004
-6.16947e-22
0.0004
-2.62296e-20
0.0004
3.86127e-20
0.0004
2.7601e-20
0.0004
2.034e-20
0.0004
-1.19038e-20
0.0004
-7.56759e-20
0.0004
-1.03284e-19
0.0004
-1.21055e-19
0.0004
-1.08342e-19
0.0004
-3.8519e-20
0.0004
-5.68097e-20
0.0004
-6.37702e-20
0.0004
-2.36515e-20
0.0004
-7.02072e-20
0.0004
-7.23443e-20
0.0004
-4.94076e-20
0.0004
-2.20684e-20
0.0004
-2.59611e-20
-4.08582e-20
0.0004
-6.80621e-20
0.0004
7.96069e-21
0.0004
-3.89525e-21
0.0004
-4.76969e-20
0.0004
2.30364e-21
0.0004
-2.60868e-20
0.0004
-1.14622e-19
0.0004
-1.29055e-19
0.0004
-4.26313e-20
0.0004
-5.4322e-20
0.0004
-6.04451e-20
0.0004
-7.55131e-21
0.0004
-2.11998e-21
0.0004
-1.4966e-20
0.0004
-4.59597e-20
0.0004
-8.74435e-20
0.0004
-6.62556e-20
0.0004
-6.60303e-20
0.0004
-8.75058e-20
-1.29618e-19
0.0004
-7.47813e-20
0.0004
-6.40663e-20
0.0004
1.22053e-20
0.0004
-2.50192e-20
0.0004
-5.99322e-20
0.0004
-4.23266e-20
0.0004
-7.19684e-20
0.0004
-7.63012e-20
0.0004
-6.15842e-20
0.0004
-3.23849e-20
0.0004
-6.28958e-20
0.0004
-8.44629e-20
0.0004
-2.92132e-20
0.0004
-2.29278e-20
0.0004
-3.71391e-20
0.0004
-5.63287e-20
0.0004
-5.45893e-20
0.0004
-7.6506e-20
0.0004
-1.04331e-19
-1.25436e-19
0.0004
-1.03509e-19
0.0004
-4.51278e-20
0.0004
-2.04341e-21
0.0004
-2.72384e-20
0.0004
-5.16617e-20
0.0004
-6.88293e-20
0.0004
-3.37379e-20
0.0004
-8.63655e-22
0.0004
-2.42667e-21
0.0004
-4.10443e-20
0.0004
-2.64604e-20
0.0004
-4.06633e-20
0.0004
-3.79843e-20
0.0004
-3.51564e-20
0.0004
-8.49926e-20
0.0004
-1.01365e-19
0.0004
-1.57332e-19
0.0004
-1.04954e-19
0.0004
-1.01738e-19
-1.03968e-19
0.0004
-1.98475e-20
0.0004
-7.8953e-20
0.0004
-5.00862e-20
0.0004
-5.02534e-20
0.0004
-5.8594e-20
0.0004
-1.1096e-19
0.0004
-2.38132e-20
0.0004
6.07826e-20
0.0004
4.37347e-20
0.0004
-1.77497e-20
0.0004
-2.79886e-20
0.0004
-1.23069e-20
0.0004
-1.31882e-20
0.0004
-5.60963e-20
0.0004
-9.34866e-20
0.0004
-1.51959e-19
0.0004
-1.40888e-19
0.0004
-1.14314e-19
0.0004
-1.06442e-19
-1.09065e-19
0.0004
-3.56742e-20
0.0004
-8.68527e-20
0.0004
-1.09464e-19
0.0004
-6.17094e-20
0.0004
-3.90413e-20
0.0004
-1.49549e-20
0.0004
2.00515e-20
0.0004
6.34827e-20
0.0004
7.10368e-20
0.0004
4.62184e-20
0.0004
-4.42367e-20
0.0004
-3.29596e-20
0.0004
-3.24918e-20
0.0004
-8.24266e-20
0.0004
-1.11972e-19
0.0004
-1.09809e-19
0.0004
-1.12062e-19
0.0004
-1.09447e-19
0.0004
-5.64737e-20
-1.21415e-19
0.0004
9.96441e-21
0.0004
-1.00767e-19
0.0004
-1.34438e-19
0.0004
-9.0046e-20
0.0004
-4.50957e-20
0.0004
-1.27011e-20
0.0004
3.26557e-20
0.0004
6.0612e-20
0.0004
1.12239e-19
0.0004
5.00533e-21
0.0004
-1.85829e-20
0.0004
-4.37627e-20
0.0004
-2.98441e-20
0.0004
-4.12672e-20
0.0004
-1.16853e-19
0.0004
-1.5682e-19
0.0004
-1.41732e-19
0.0004
-1.28827e-19
0.0004
-1.01204e-19
-6.56891e-20
0.0004
-9.76516e-21
0.0004
-7.61029e-20
0.0004
-7.29606e-20
0.0004
-3.28855e-20
0.0004
-4.89358e-20
0.0004
-1.72323e-20
0.0004
-1.29752e-20
0.0004
3.69748e-20
0.0004
5.64189e-20
0.0004
4.61716e-20
0.0004
4.36202e-20
0.0004
-1.48131e-20
0.0004
8.466e-21
0.0004
-4.1643e-20
0.0004
-1.43187e-19
0.0004
-1.60518e-19
0.0004
-1.49028e-19
0.0004
-1.43425e-19
0.0004
-9.92291e-20
-5.87228e-20
0.0004
-8.01935e-21
0.0004
-4.34399e-20
0.0004
-4.74199e-20
0.0004
-5.89393e-20
0.0004
-4.17621e-20
0.0004
-1.7963e-20
0.0004
-5.90721e-21
0.0004
1.02583e-20
0.0004
1.54459e-20
0.0004
1.19303e-20
0.0004
7.20115e-20
0.0004
5.12103e-20
0.0004
-3.19919e-20
0.0004
-3.12325e-20
0.0004
-1.1752e-19
0.0004
-1.61638e-19
0.0004
-1.27887e-19
0.0004
-1.13148e-19
0.0004
-9.2688e-20
-5.06097e-20
0.0004
0.0004
0.0004
0.0004
0.0004
0.0004
0.0004
0.0004
0.0004
0.0004
0.0004
0.0004
0.0004
0.0004
0.0004
0.0004
0.0004
0.0004
0.0004
)
;

boundaryField
{
    inlet
    {
        type            calculated;
        value           nonuniform List<scalar> 
20
(
-0.0004
-0.0004
-0.0004
-0.0004
-0.0004
-0.0004
-0.0004
-0.0004
-0.0004
-0.0004
-0.0004
-0.0004
-0.0004
-0.0004
-0.0004
-0.0004
-0.0004
-0.0004
-0.0004
-0.0004
)
;
    }
    outlet
    {
        type            calculated;
        value           nonuniform List<scalar> 
20
(
0.0004
0.0004
0.0004
0.0004
0.0004
0.0004
0.0004
0.0004
0.0004
0.0004
0.0004
0.0004
0.0004
0.0004
0.0004
0.0004
0.0004
0.0004
0.0004
0.0004
)
;
    }
    up
    {
        type            calculated;
        value           nonuniform List<scalar> 
20
(
4.32861e-21
-6.68988e-22
-1.79577e-20
-6.49146e-21
-5.83189e-21
-1.75797e-20
-2.88836e-20
-2.52333e-20
-1.91296e-20
-9.07001e-21
2.73131e-20
1.19197e-20
-5.52606e-21
-2.6466e-20
-6.11136e-20
-1.10034e-19
-1.29362e-19
-1.23396e-19
-1.19903e-19
-8.2645e-20
)
;
    }
    down
    {
        type            calculated;
        value           nonuniform List<scalar> 
20
(
-9.33941e-21
-6.00358e-20
-6.98407e-20
-5.39492e-20
-2.98577e-20
-3.97736e-20
-4.80426e-20
-6.66838e-20
-6.77755e-20
-6.75125e-20
-2.21958e-20
8.95908e-21
2.61319e-20
3.15184e-20
4.40788e-20
5.83969e-20
4.67618e-20
3.76041e-20
6.66166e-20
1.28877e-19
)
;
    }
    frontAndBack
    {
        type            empty;
        value           nonuniform List<scalar> 0();
    }
}


// ************************************************************************* //
