0 	-9.50931e-10
1.57135 	8.81767e-06
3.1427 	6.89301e-05
4.71405 	0.000270906
6.28539 	0.000740294
7.85674 	0.00161693
9.42809 	0.00309843
10.9994 	0.00524506
12.5708 	0.0102604
14.1421 	0.018098
