/*--------------------------------*- C++ -*----------------------------------*\
  =========                 |
  \\      /  F ield         | OpenFOAM: The Open Source CFD Toolbox
   \\    /   O peration     | Website:  https://openfoam.org
    \\  /    A nd           | Version:  8
     \\/     M anipulation  |
\*---------------------------------------------------------------------------*/
FoamFile
{
    version     2.0;
    format      ascii;
    class       volVectorField;
    location    "1.6";
    object      U;
}
// * * * * * * * * * * * * * * * * * * * * * * * * * * * * * * * * * * * * * //

dimensions      [0 1 -1 0 0 0 0];

internalField   nonuniform List<vector> 
400
(
(0.0249917 8.24534e-17 0)
(0.0249917 3.11628e-17 0)
(0.0249917 3.18556e-17 0)
(0.0249917 3.60799e-17 0)
(0.0249917 3.16592e-17 0)
(0.0249917 1.8661e-17 0)
(0.0249917 1.58558e-17 0)
(0.0249917 2.12113e-18 0)
(0.0249917 2.40216e-18 0)
(0.0249917 -7.46666e-18 0)
(0.0249917 -1.03276e-17 0)
(0.0249917 -1.51851e-17 0)
(0.0249917 -1.64923e-17 0)
(0.0249917 -1.65704e-17 0)
(0.0249917 -1.60608e-17 0)
(0.0249917 -6.26242e-18 0)
(0.0249917 -1.74315e-18 0)
(0.0249917 9.96018e-18 0)
(0.0249917 1.13146e-17 0)
(0.0249917 2.05555e-17 0)
(0.0749754 2.67576e-16 0)
(0.0749754 1.74026e-16 0)
(0.0749754 1.4242e-16 0)
(0.0749754 1.16585e-16 0)
(0.0749754 6.74685e-17 0)
(0.0749754 1.89866e-17 0)
(0.0749754 -2.828e-17 0)
(0.0749754 -5.71651e-17 0)
(0.0749754 -9.62147e-17 0)
(0.0749754 -1.04099e-16 0)
(0.0749754 -1.11492e-16 0)
(0.0749754 -1.01354e-16 0)
(0.0749754 -8.68694e-17 0)
(0.0749754 -5.53798e-17 0)
(0.0749754 -2.23666e-17 0)
(0.0749754 1.94394e-17 0)
(0.0749754 7.69505e-17 0)
(0.0749754 1.03216e-16 0)
(0.0749754 1.39977e-16 0)
(0.0749754 1.61743e-16 0)
(0.12496 4.33223e-16 0)
(0.12496 3.70601e-16 0)
(0.12496 2.79677e-16 0)
(0.12496 1.55768e-16 0)
(0.12496 2.25888e-17 0)
(0.12496 -1.23895e-16 0)
(0.12496 -2.34083e-16 0)
(0.12496 -3.22112e-16 0)
(0.12496 -3.84556e-16 0)
(0.12496 -4.04502e-16 0)
(0.12496 -3.58702e-16 0)
(0.12496 -3.01478e-16 0)
(0.12496 -2.06663e-16 0)
(0.12496 -8.86028e-17 0)
(0.12496 4.14482e-17 0)
(0.12496 1.72732e-16 0)
(0.12496 2.98457e-16 0)
(0.12496 3.83774e-16 0)
(0.12496 4.30418e-16 0)
(0.12496 4.46467e-16 0)
(0.174945 7.9251e-16 0)
(0.174945 6.15935e-16 0)
(0.174945 3.89515e-16 0)
(0.174945 1.25769e-16 0)
(0.174945 -1.78599e-16 0)
(0.174945 -4.31959e-16 0)
(0.174945 -6.5059e-16 0)
(0.174945 -7.74839e-16 0)
(0.174945 -8.61815e-16 0)
(0.174945 -8.53481e-16 0)
(0.174945 -7.47118e-16 0)
(0.174945 -5.60568e-16 0)
(0.174945 -3.2097e-16 0)
(0.174945 -5.666e-17 0)
(0.174945 2.33416e-16 0)
(0.174945 4.84233e-16 0)
(0.174945 7.09165e-16 0)
(0.174945 8.73943e-16 0)
(0.174945 9.30761e-16 0)
(0.174945 8.89464e-16 0)
(0.224932 1.20468e-15 0)
(0.224932 8.53987e-16 0)
(0.224932 4.44272e-16 0)
(0.224932 -1.44503e-17 0)
(0.224932 -4.92349e-16 0)
(0.224932 -8.8573e-16 0)
(0.224932 -1.18499e-15 0)
(0.224932 -1.3852e-15 0)
(0.224932 -1.44138e-15 0)
(0.224932 -1.38653e-15 0)
(0.224932 -1.16914e-15 0)
(0.224932 -8.32024e-16 0)
(0.224932 -3.9089e-16 0)
(0.224932 8.21395e-17 0)
(0.224932 5.41422e-16 0)
(0.224932 9.55436e-16 0)
(0.224932 1.27136e-15 0)
(0.224932 1.49147e-15 0)
(0.224932 1.53934e-15 0)
(0.224932 1.43451e-15 0)
(0.27492 1.57871e-15 0)
(0.27492 1.04742e-15 0)
(0.27492 4.33781e-16 0)
(0.27492 -2.16048e-16 0)
(0.27492 -8.59247e-16 0)
(0.27492 -1.39097e-15 0)
(0.27492 -1.75462e-15 0)
(0.27492 -2.0101e-15 0)
(0.27492 -2.04989e-15 0)
(0.27492 -1.89621e-15 0)
(0.27492 -1.54531e-15 0)
(0.27492 -1.03669e-15 0)
(0.27492 -4.27285e-16 0)
(0.27492 2.73577e-16 0)
(0.27492 9.28092e-16 0)
(0.27492 1.48744e-15 0)
(0.27492 1.89513e-15 0)
(0.27492 2.12029e-15 0)
(0.27492 2.13121e-15 0)
(0.27492 1.93801e-15 0)
(0.32491 1.77513e-15 0)
(0.32491 1.13478e-15 0)
(0.32491 3.73524e-16 0)
(0.32491 -4.23407e-16 0)
(0.32491 -1.16287e-15 0)
(0.32491 -1.81937e-15 0)
(0.32491 -2.26792e-15 0)
(0.32491 -2.51634e-15 0)
(0.32491 -2.52856e-15 0)
(0.32491 -2.26939e-15 0)
(0.32491 -1.79951e-15 0)
(0.32491 -1.13972e-15 0)
(0.32491 -3.94075e-16 0)
(0.32491 4.58189e-16 0)
(0.32491 1.27892e-15 0)
(0.32491 1.93655e-15 0)
(0.32491 2.40854e-15 0)
(0.32491 2.65414e-15 0)
(0.32491 2.59689e-15 0)
(0.32491 2.28898e-15 0)
(0.374903 1.84805e-15 0)
(0.374903 1.13294e-15 0)
(0.374903 2.98037e-16 0)
(0.374903 -5.93061e-16 0)
(0.374903 -1.37034e-15 0)
(0.374903 -2.05903e-15 0)
(0.374903 -2.57193e-15 0)
(0.374903 -2.79789e-15 0)
(0.374903 -2.73836e-15 0)
(0.374903 -2.45875e-15 0)
(0.374903 -1.90863e-15 0)
(0.374903 -1.15404e-15 0)
(0.374903 -2.83152e-16 0)
(0.374903 6.47447e-16 0)
(0.374903 1.51676e-15 0)
(0.374903 2.2174e-15 0)
(0.374903 2.66481e-15 0)
(0.374903 2.90304e-15 0)
(0.374903 2.83678e-15 0)
(0.374903 2.45685e-15 0)
(0.424898 1.84022e-15 0)
(0.424898 1.08547e-15 0)
(0.424898 2.30329e-16 0)
(0.424898 -6.34567e-16 0)
(0.424898 -1.4464e-15 0)
(0.424898 -2.08025e-15 0)
(0.424898 -2.55585e-15 0)
(0.424898 -2.74554e-15 0)
(0.424898 -2.67921e-15 0)
(0.424898 -2.37945e-15 0)
(0.424898 -1.83017e-15 0)
(0.424898 -1.09326e-15 0)
(0.424898 -1.97269e-16 0)
(0.424898 7.10664e-16 0)
(0.424898 1.56396e-15 0)
(0.424898 2.2214e-15 0)
(0.424898 2.64367e-15 0)
(0.424898 2.82248e-15 0)
(0.424898 2.78984e-15 0)
(0.424898 2.44477e-15 0)
(0.474895 1.65947e-15 0)
(0.474895 9.42682e-16 0)
(0.474895 1.7368e-16 0)
(0.474895 -5.98246e-16 0)
(0.474895 -1.294e-15 0)
(0.474895 -1.87935e-15 0)
(0.474895 -2.26724e-15 0)
(0.474895 -2.42087e-15 0)
(0.474895 -2.36076e-15 0)
(0.474895 -2.04571e-15 0)
(0.474895 -1.58104e-15 0)
(0.474895 -9.4132e-16 0)
(0.474895 -1.72955e-16 0)
(0.474895 6.13712e-16 0)
(0.474895 1.37579e-15 0)
(0.474895 1.9873e-15 0)
(0.474895 2.3553e-15 0)
(0.474895 2.51323e-15 0)
(0.474895 2.46155e-15 0)
(0.474895 2.18359e-15 0)
(0.524895 1.31015e-15 0)
(0.524895 7.44737e-16 0)
(0.524895 1.34438e-16 0)
(0.524895 -4.75708e-16 0)
(0.524895 -1.01126e-15 0)
(0.524895 -1.45777e-15 0)
(0.524895 -1.77678e-15 0)
(0.524895 -1.90911e-15 0)
(0.524895 -1.84972e-15 0)
(0.524895 -1.59207e-15 0)
(0.524895 -1.21374e-15 0)
(0.524895 -7.19654e-16 0)
(0.524895 -1.46643e-16 0)
(0.524895 4.68152e-16 0)
(0.524895 1.05274e-15 0)
(0.524895 1.54429e-15 0)
(0.524895 1.89364e-15 0)
(0.524895 1.99283e-15 0)
(0.524895 1.92676e-15 0)
(0.524895 1.70591e-15 0)
(0.574898 8.23459e-16 0)
(0.574898 4.9917e-16 0)
(0.574898 1.17731e-16 0)
(0.574898 -3.47254e-16 0)
(0.574898 -6.6078e-16 0)
(0.574898 -9.71201e-16 0)
(0.574898 -1.16592e-15 0)
(0.574898 -1.25271e-15 0)
(0.574898 -1.24193e-15 0)
(0.574898 -1.07571e-15 0)
(0.574898 -7.66821e-16 0)
(0.574898 -4.09241e-16 0)
(0.574898 -3.64292e-17 0)
(0.574898 3.3168e-16 0)
(0.574898 7.07251e-16 0)
(0.574898 9.96243e-16 0)
(0.574898 1.27964e-15 0)
(0.574898 1.36247e-15 0)
(0.574898 1.28201e-15 0)
(0.574898 1.11912e-15 0)
(0.624903 3.38918e-16 0)
(0.624903 2.18777e-16 0)
(0.624903 1.30663e-17 0)
(0.624903 -2.04526e-16 0)
(0.624903 -3.86436e-16 0)
(0.624903 -5.18886e-16 0)
(0.624903 -6.30008e-16 0)
(0.624903 -6.27014e-16 0)
(0.624903 -6.36174e-16 0)
(0.624903 -4.91317e-16 0)
(0.624903 -3.04708e-16 0)
(0.624903 -8.80421e-17 0)
(0.624903 1.17991e-16 0)
(0.624903 2.82869e-16 0)
(0.624903 4.64233e-16 0)
(0.624903 5.61202e-16 0)
(0.624903 6.76272e-16 0)
(0.624903 6.98045e-16 0)
(0.624903 6.1845e-16 0)
(0.624903 4.75489e-16 0)
(0.67491 -3.33997e-17 0)
(0.67491 -7.20118e-17 0)
(0.67491 -1.21779e-16 0)
(0.67491 -1.34877e-16 0)
(0.67491 -1.82886e-16 0)
(0.67491 -2.02145e-16 0)
(0.67491 -2.14997e-16 0)
(0.67491 -1.88896e-16 0)
(0.67491 -1.27867e-16 0)
(0.67491 -3.07652e-17 0)
(0.67491 5.59251e-17 0)
(0.67491 1.57868e-16 0)
(0.67491 2.65323e-16 0)
(0.67491 3.04471e-16 0)
(0.67491 2.90997e-16 0)
(0.67491 2.87482e-16 0)
(0.67491 1.97265e-16 0)
(0.67491 1.69041e-16 0)
(0.67491 1.00606e-16 0)
(0.67491 1.44377e-17 0)
(0.72492 -3.27768e-16 0)
(0.72492 -2.93223e-16 0)
(0.72492 -1.94883e-16 0)
(0.72492 -1.46034e-16 0)
(0.72492 -2.86984e-17 0)
(0.72492 -7.73982e-18 0)
(0.72492 4.60498e-17 0)
(0.72492 8.64797e-17 0)
(0.72492 1.88794e-16 0)
(0.72492 2.26607e-16 0)
(0.72492 2.79665e-16 0)
(0.72492 3.43769e-16 0)
(0.72492 3.3412e-16 0)
(0.72492 2.72881e-16 0)
(0.72492 1.92329e-16 0)
(0.72492 6.53297e-17 0)
(0.72492 -8.31019e-17 0)
(0.72492 -1.45565e-16 0)
(0.72492 -2.08576e-16 0)
(0.72492 -2.74971e-16 0)
(0.774932 -4.15315e-16 0)
(0.774932 -2.79158e-16 0)
(0.774932 -1.8844e-16 0)
(0.774932 -6.89403e-17 0)
(0.774932 -2.19499e-17 0)
(0.774932 6.2182e-17 0)
(0.774932 1.3328e-16 0)
(0.774932 2.24154e-16 0)
(0.774932 3.48123e-16 0)
(0.774932 3.50876e-16 0)
(0.774932 3.6579e-16 0)
(0.774932 3.76097e-16 0)
(0.774932 3.10859e-16 0)
(0.774932 2.37972e-16 0)
(0.774932 6.14978e-17 0)
(0.774932 -7.34123e-17 0)
(0.774932 -1.73397e-16 0)
(0.774932 -3.06918e-16 0)
(0.774932 -3.61917e-16 0)
(0.774932 -3.96705e-16 0)
(0.824945 -3.15421e-16 0)
(0.824945 -2.12154e-16 0)
(0.824945 -1.07386e-16 0)
(0.824945 -1.03021e-17 0)
(0.824945 -2.9184e-17 0)
(0.824945 1.24211e-17 0)
(0.824945 9.59269e-17 0)
(0.824945 2.48807e-16 0)
(0.824945 3.22028e-16 0)
(0.824945 3.16208e-16 0)
(0.824945 3.25579e-16 0)
(0.824945 3.17409e-16 0)
(0.824945 2.7054e-16 0)
(0.824945 1.8325e-16 0)
(0.824945 -2.16918e-17 0)
(0.824945 -1.21892e-16 0)
(0.824945 -1.98746e-16 0)
(0.824945 -3.52997e-16 0)
(0.824945 -3.92378e-16 0)
(0.824945 -3.99565e-16 0)
(0.87496 -1.76079e-16 0)
(0.87496 -1.51872e-16 0)
(0.87496 -2.891e-17 0)
(0.87496 1.32169e-17 0)
(0.87496 -2.85057e-17 0)
(0.87496 -7.53804e-17 0)
(0.87496 -2.38297e-17 0)
(0.87496 5.14046e-17 0)
(0.87496 2.05387e-16 0)
(0.87496 2.23609e-16 0)
(0.87496 2.32636e-16 0)
(0.87496 2.38966e-16 0)
(0.87496 2.41308e-16 0)
(0.87496 1.34939e-16 0)
(0.87496 -1.71885e-17 0)
(0.87496 -1.61398e-16 0)
(0.87496 -1.88822e-16 0)
(0.87496 -2.34125e-16 0)
(0.87496 -2.48175e-16 0)
(0.87496 -2.51757e-16 0)
(0.924975 -3.69271e-17 0)
(0.924975 -4.43429e-17 0)
(0.924975 -2.42765e-17 0)
(0.924975 3.86927e-17 0)
(0.924975 -3.19925e-17 0)
(0.924975 -1.11815e-16 0)
(0.924975 -9.55058e-17 0)
(0.924975 -1.01502e-16 0)
(0.924975 4.81946e-17 0)
(0.924975 1.47657e-16 0)
(0.924975 1.18805e-16 0)
(0.924975 6.63627e-17 0)
(0.924975 1.24476e-16 0)
(0.924975 1.11726e-16 0)
(0.924975 -1.94825e-19 0)
(0.924975 -9.63369e-17 0)
(0.924975 -1.37538e-16 0)
(0.924975 -7.61522e-17 0)
(0.924975 -7.04766e-17 0)
(0.924975 -1.72958e-17 0)
(0.974992 6.58988e-18 0)
(0.974992 -1.9199e-17 0)
(0.974992 -2.42408e-17 0)
(0.974992 1.85554e-17 0)
(0.974992 -6.27642e-18 0)
(0.974992 -4.25938e-17 0)
(0.974992 -5.05853e-17 0)
(0.974992 -5.0587e-17 0)
(0.974992 -2.12164e-17 0)
(0.974992 5.05459e-17 0)
(0.974992 4.42215e-17 0)
(0.974992 -2.29673e-17 0)
(0.974992 5.73759e-18 0)
(0.974992 3.60816e-17 0)
(0.974992 2.51809e-17 0)
(0.974992 -7.56233e-18 0)
(0.974992 -4.41239e-17 0)
(0.974992 -3.36138e-17 0)
(0.974992 -2.30448e-17 0)
(0.974992 2.00033e-17 0)
)
;

boundaryField
{
    movingWall
    {
        type            fixedValue;
        value           uniform (1 0 0);
    }
    fixedWalls
    {
        type            noSlip;
    }
    left
    {
        type            cyclic;
    }
    right
    {
        type            cyclic;
    }
    frontAndBack
    {
        type            empty;
    }
}


// ************************************************************************* //
