/*--------------------------------*- C++ -*----------------------------------*\
  =========                 |
  \\      /  F ield         | OpenFOAM: The Open Source CFD Toolbox
   \\    /   O peration     | Website:  https://openfoam.org
    \\  /    A nd           | Version:  8
     \\/     M anipulation  |
\*---------------------------------------------------------------------------*/
FoamFile
{
    version     2.0;
    format      ascii;
    class       volScalarField;
    location    "0.19";
    object      p;
}
// * * * * * * * * * * * * * * * * * * * * * * * * * * * * * * * * * * * * * //

dimensions      [0 2 -2 0 0 0 0];

internalField   nonuniform List<scalar> 
400
(
1.76866e-12
-1.36261e-06
-1.06043e-06
-2.89949e-07
3.83041e-07
1.08597e-06
1.86912e-06
2.68833e-06
3.47539e-06
4.21622e-06
4.95954e-06
5.77004e-06
6.67193e-06
7.61512e-06
8.46976e-06
9.03769e-06
9.07665e-06
8.2866e-06
6.16745e-06
2.9014e-06
1.56267e-06
5.42424e-07
7.256e-07
1.25197e-06
1.77119e-06
2.33226e-06
2.97235e-06
3.62976e-06
4.22704e-06
4.75487e-06
5.2755e-06
5.8676e-06
6.56475e-06
7.32272e-06
8.01763e-06
8.47076e-06
8.50684e-06
7.94464e-06
6.47694e-06
4.01465e-06
3.66786e-06
2.52927e-06
2.37248e-06
2.6429e-06
2.98352e-06
3.40318e-06
3.91973e-06
4.45236e-06
4.91361e-06
5.29606e-06
5.67264e-06
6.13512e-06
6.72701e-06
7.40938e-06
8.06284e-06
8.52349e-06
8.6744e-06
8.43509e-06
7.52717e-06
5.73884e-06
5.5842e-06
4.26429e-06
3.89985e-06
3.98371e-06
4.15491e-06
4.42908e-06
4.82899e-06
5.26244e-06
5.62825e-06
5.91288e-06
6.19304e-06
6.56947e-06
7.09436e-06
7.73638e-06
8.38782e-06
8.9092e-06
9.23287e-06
9.3277e-06
8.86799e-06
7.46133e-06
7.07219e-06
5.66933e-06
5.22267e-06
5.21634e-06
5.2736e-06
5.43528e-06
5.74546e-06
6.10891e-06
6.41229e-06
6.63359e-06
6.84914e-06
7.1647e-06
7.63811e-06
8.24364e-06
8.88634e-06
9.45798e-06
9.94113e-06
1.03244e-05
1.01896e-05
8.96953e-06
8.256e-06
6.76864e-06
6.29358e-06
6.26981e-06
6.27938e-06
6.38001e-06
6.63909e-06
6.96457e-06
7.23687e-06
7.42781e-06
7.61214e-06
7.89803e-06
8.34533e-06
8.92778e-06
9.55538e-06
1.01461e-05
1.07296e-05
1.13109e-05
1.13828e-05
1.02347e-05
9.21146e-06
7.64237e-06
7.1675e-06
7.17255e-06
7.18294e-06
7.26209e-06
7.49804e-06
7.80593e-06
8.06544e-06
8.24553e-06
8.4205e-06
8.7009e-06
9.14688e-06
9.72619e-06
1.03435e-05
1.09312e-05
1.15579e-05
1.22476e-05
1.24316e-05
1.12915e-05
1.0044e-05
8.40958e-06
7.95226e-06
8.00746e-06
8.04238e-06
8.11967e-06
8.3437e-06
8.63807e-06
8.88532e-06
9.05472e-06
9.22244e-06
9.50337e-06
9.95891e-06
1.05486e-05
1.11646e-05
1.17418e-05
1.23771e-05
1.31176e-05
1.33608e-05
1.22112e-05
1.08516e-05
9.17188e-06
8.7341e-06
8.83768e-06
8.90092e-06
8.98165e-06
9.19449e-06
9.47061e-06
9.69759e-06
9.84747e-06
1.00003e-05
1.02772e-05
1.07429e-05
1.13492e-05
1.19722e-05
1.25412e-05
1.31707e-05
1.39326e-05
1.42158e-05
1.30713e-05
1.1697e-05
9.98794e-06
9.55542e-06
9.68844e-06
9.77152e-06
9.85329e-06
1.00515e-05
1.03033e-05
1.05029e-05
1.06267e-05
1.07589e-05
1.10269e-05
1.14997e-05
1.21235e-05
1.27592e-05
1.33259e-05
1.39465e-05
1.47163e-05
1.50374e-05
1.39275e-05
1.26039e-05
1.08767e-05
1.04251e-05
1.0559e-05
1.06469e-05
1.07234e-05
1.09025e-05
1.1126e-05
1.12967e-05
1.13956e-05
1.1509e-05
1.17681e-05
1.22457e-05
1.2885e-05
1.35351e-05
1.41044e-05
1.47166e-05
1.54869e-05
1.58477e-05
1.48038e-05
1.35602e-05
1.18253e-05
1.13292e-05
1.14332e-05
1.15085e-05
1.15722e-05
1.17287e-05
1.1924e-05
1.20705e-05
1.21531e-05
1.22567e-05
1.2512e-05
1.29937e-05
1.36443e-05
1.43063e-05
1.48791e-05
1.54821e-05
1.62449e-05
1.66434e-05
1.56909e-05
1.45209e-05
1.2792e-05
1.22319e-05
1.22787e-05
1.23257e-05
1.23711e-05
1.2505e-05
1.26772e-05
1.28095e-05
1.28893e-05
1.2996e-05
1.32552e-05
1.37408e-05
1.43971e-05
1.50646e-05
1.56373e-05
1.62266e-05
1.69699e-05
1.73956e-05
1.65487e-05
1.54185e-05
1.37114e-05
1.30757e-05
1.30446e-05
1.30522e-05
1.30779e-05
1.31942e-05
1.33533e-05
1.34854e-05
1.3578e-05
1.37019e-05
1.39737e-05
1.44646e-05
1.51216e-05
1.57883e-05
1.63569e-05
1.69267e-05
1.76347e-05
1.80656e-05
1.73204e-05
1.61881e-05
1.45153e-05
1.37971e-05
1.36719e-05
1.36313e-05
1.36381e-05
1.37443e-05
1.39026e-05
1.40497e-05
1.41715e-05
1.4328e-05
1.46241e-05
1.51266e-05
1.57865e-05
1.64546e-05
1.7023e-05
1.75739e-05
1.82314e-05
1.86337e-05
1.79616e-05
1.67987e-05
1.5162e-05
1.43539e-05
1.41163e-05
1.40147e-05
1.39995e-05
1.41e-05
1.42672e-05
1.44427e-05
1.46097e-05
1.48164e-05
1.51542e-05
1.56845e-05
1.63633e-05
1.70506e-05
1.76382e-05
1.81835e-05
1.87812e-05
1.91144e-05
1.8467e-05
1.72605e-05
1.565e-05
1.47436e-05
1.4374e-05
1.4194e-05
1.41482e-05
1.42424e-05
1.44238e-05
1.46369e-05
1.48622e-05
1.51364e-05
1.5537e-05
1.61188e-05
1.68426e-05
1.75772e-05
1.8211e-05
1.87673e-05
1.92981e-05
1.95254e-05
1.88557e-05
1.75876e-05
1.59763e-05
1.49598e-05
1.44457e-05
1.41745e-05
1.4092e-05
1.41809e-05
1.43831e-05
1.46444e-05
1.49429e-05
1.53055e-05
1.57961e-05
1.64601e-05
1.72595e-05
1.80684e-05
1.87666e-05
1.93382e-05
1.97922e-05
1.98918e-05
1.91656e-05
1.78448e-05
1.61155e-05
1.49328e-05
1.42523e-05
1.38818e-05
1.37629e-05
1.38557e-05
1.40966e-05
1.44313e-05
1.48351e-05
1.53261e-05
1.59539e-05
1.6751e-05
1.76743e-05
1.85977e-05
1.93907e-05
1.99984e-05
2.03923e-05
2.03632e-05
1.95122e-05
1.81812e-05
1.60682e-05
1.45454e-05
1.36529e-05
1.31748e-05
1.30306e-05
1.31543e-05
1.3474e-05
1.39308e-05
1.44942e-05
1.51722e-05
1.60002e-05
1.6998e-05
1.81177e-05
1.92361e-05
2.02155e-05
2.09594e-05
2.13853e-05
2.12293e-05
2.01313e-05
)
;

boundaryField
{
    movingWall
    {
        type            zeroGradient;
    }
    fixedWalls
    {
        type            zeroGradient;
    }
    left
    {
        type            cyclic;
    }
    right
    {
        type            cyclic;
    }
    frontAndBack
    {
        type            empty;
    }
}


// ************************************************************************* //
