/*--------------------------------*- C++ -*----------------------------------*\
  =========                 |
  \\      /  F ield         | OpenFOAM: The Open Source CFD Toolbox
   \\    /   O peration     | Website:  https://openfoam.org
    \\  /    A nd           | Version:  8
     \\/     M anipulation  |
\*---------------------------------------------------------------------------*/
FoamFile
{
    version     2.0;
    format      ascii;
    class       surfaceScalarField;
    location    "17.5";
    object      phi;
}
// * * * * * * * * * * * * * * * * * * * * * * * * * * * * * * * * * * * * * //

dimensions      [0 3 -1 0 0 0 0];

internalField   nonuniform List<scalar> 
880
(
-8.71706e-06
8.71706e-06
-1.75301e-05
8.81306e-06
-2.5913e-05
8.38285e-06
-3.3664e-05
7.75109e-06
-4.06073e-05
6.94325e-06
-4.65931e-05
5.98576e-06
-5.15113e-05
4.91826e-06
-5.52642e-05
3.75286e-06
-5.79069e-05
2.64269e-06
-5.91992e-05
1.2923e-06
-5.99723e-05
7.7315e-07
-8.1817e-07
-5.91542e-05
-9.2383e-06
1.79554e-05
-1.85709e-05
1.81457e-05
-2.74429e-05
1.72548e-05
-3.56398e-05
1.59479e-05
-4.29778e-05
1.42813e-05
-4.9307e-05
1.2315e-05
-5.45183e-05
1.01295e-05
-5.85248e-05
7.75935e-06
-6.13886e-05
5.50647e-06
-6.29271e-05
2.83088e-06
-6.39759e-05
1.82192e-06
-1.67088e-06
-6.31232e-05
-9.68469e-06
2.764e-05
-1.94616e-05
2.79225e-05
-2.87427e-05
2.6536e-05
-3.72966e-05
2.45018e-05
-4.4921e-05
2.19057e-05
-5.14396e-05
1.88336e-05
-5.67031e-05
1.53931e-05
-6.06005e-05
1.16567e-05
-6.29621e-05
7.86806e-06
-6.38853e-05
3.75403e-06
-6.27517e-05
6.8837e-07
-4.1377e-06
-6.02849e-05
-1.03724e-05
3.80125e-05
-2.08331e-05
3.83832e-05
-3.07463e-05
3.64492e-05
-3.98597e-05
3.36153e-05
-4.79638e-05
3.00098e-05
-5.48832e-05
2.5753e-05
-6.04827e-05
2.09925e-05
-6.4668e-05
1.5842e-05
-6.72797e-05
1.04798e-05
-6.83555e-05
4.82985e-06
-6.7248e-05
-4.19154e-07
-6.55285e-06
-6.48329e-05
-1.13329e-05
4.93454e-05
-2.27448e-05
4.97951e-05
-3.35331e-05
4.72375e-05
-4.34113e-05
4.34935e-05
-5.21554e-05
3.87539e-05
-5.95735e-05
3.31711e-05
-6.55117e-05
2.69308e-05
-6.98462e-05
2.01765e-05
-7.2468e-05
1.31015e-05
-7.33738e-05
5.73566e-06
-7.23228e-05
-1.47012e-06
-9.2885e-06
-6.95872e-05
-1.26069e-05
6.19522e-05
-2.5273e-05
6.24612e-05
-3.72112e-05
5.91757e-05
-4.80867e-05
5.43689e-05
-5.76709e-05
4.83381e-05
-6.57652e-05
4.12654e-05
-7.22376e-05
3.34031e-05
-7.69907e-05
2.49297e-05
-7.99392e-05
1.605e-05
-8.10223e-05
6.81873e-06
-7.99927e-05
-2.49972e-06
-1.20758e-05
-7.72054e-05
-1.42477e-05
7.61999e-05
-2.85161e-05
7.67297e-05
-4.19143e-05
7.25738e-05
-5.403e-05
6.64846e-05
-6.46442e-05
5.89523e-05
-7.35443e-05
5.01655e-05
-8.06236e-05
4.04825e-05
-8.5798e-05
3.0104e-05
-8.89978e-05
1.92499e-05
-9.02211e-05
8.04207e-06
-8.93966e-05
-3.32424e-06
-1.49393e-05
-8.6533e-05
-1.63536e-05
9.25535e-05
-3.26367e-05
9.30128e-05
-4.78559e-05
8.7793e-05
-6.14658e-05
8.00945e-05
-7.33051e-05
7.07916e-05
-8.31408e-05
6.00012e-05
-9.09272e-05
4.82689e-05
-9.66153e-05
3.57922e-05
-0.000100189
2.28232e-05
-0.000101637
9.49052e-06
-0.000100895
-4.06634e-06
-1.78263e-05
-9.8008e-05
-1.89744e-05
0.000111528
-3.77593e-05
0.000111798
-5.52313e-05
0.000105265
-7.06261e-05
9.54893e-05
-8.38932e-05
8.40587e-05
-9.47636e-05
7.08715e-05
-0.000103307
5.68126e-05
-0.000109524
4.20093e-05
-0.000113465
2.67636e-05
-0.000115161
1.11871e-05
-0.000114599
-4.62908e-06
-2.07014e-05
-0.000111724
-2.26214e-05
0.000134149
-4.44788e-05
0.000133655
-6.47425e-05
0.000125529
-8.20483e-05
0.000112795
-9.686e-05
9.88704e-05
-0.000108752
8.27633e-05
-0.000118021
6.60815e-05
-0.000124729
4.87182e-05
-0.000129025
3.10592e-05
-0.000130996
1.31579e-05
-0.000130602
-5.02266e-06
-2.34493e-05
-0.000127854
-2.65398e-05
0.000160689
-5.20996e-05
0.000159215
-7.56997e-05
0.000149129
-9.54097e-05
0.000132505
-0.000112128
0.000115589
-0.000125178
9.58131e-05
-0.0001352
7.61036e-05
-0.000142345
5.58625e-05
-0.000146907
3.56213e-05
-0.000149077
1.53282e-05
-0.000149011
-5.08869e-06
-2.60168e-05
-0.000146444
-3.40802e-05
0.000194769
-6.44429e-05
0.000189578
-9.25628e-05
0.000177249
-0.000113948
0.000153891
-0.000132083
0.000133724
-0.000145366
0.000109097
-0.000155526
8.62635e-05
-0.000162676
6.3012e-05
-0.000167431
4.03761e-05
-0.000169984
1.78812e-05
-0.000170196
-4.87645e-06
-2.79047e-05
-0.000168308
-3.9399e-05
0.000234168
-7.52977e-05
0.000225476
-0.000108034
0.000209985
-0.000132553
0.000178409
-0.000152936
0.000154106
-0.000167182
0.000123344
-0.000177873
9.69539e-05
-0.000185058
7.01973e-05
-0.000189579
4.48969e-05
-0.000191946
2.02487e-05
-0.000192717
-4.10597e-06
-2.93863e-05
-0.000191235
-5.88032e-05
0.000292972
-0.000101557
0.00026823
-0.000141102
0.00024953
-0.000165142
0.000202449
-0.000184916
0.000173881
-0.000196838
0.000135266
-0.000205708
0.000105824
-0.000211378
7.58678e-05
-0.000215564
4.90831e-05
-0.000218412
2.30962e-05
-0.000219729
-2.78836e-06
-2.89322e-05
-0.000220183
-6.36226e-05
0.000356594
-0.00011612
0.000320728
-0.000162277
0.000295686
-0.000190419
0.000230592
-0.000212262
0.000195723
-0.000224278
0.000147282
-0.000232621
0.000114166
-0.000237204
8.04504e-05
-0.000239874
5.17535e-05
-0.000241635
2.48566e-05
-0.0002436
-8.23315e-07
-2.81149e-05
-0.000244417
-0.000126746
0.000483341
-0.000180733
0.000374714
-0.000231497
0.00034645
-0.000250265
0.000249359
-0.000263071
0.00020853
-0.000267211
0.000151422
-0.000268708
0.000115664
-0.000269168
8.09103e-05
-0.000270308
5.28937e-05
-0.000272422
2.69702e-05
-0.000275519
2.27323e-06
-2.2826e-05
-0.000280807
-0.000115994
0.000599334
-0.000197692
0.000456413
-0.000261687
0.000410445
-0.000285874
0.000273547
-0.00029903
0.000221686
-0.000300193
0.000152585
-0.000298516
0.000113986
-0.000295231
7.76261e-05
-0.000292884
5.05468e-05
-0.000292454
2.65393e-05
-0.000295115
4.93424e-06
-1.80397e-05
-0.000299901
-0.000351552
0.000950886
-0.00037547
0.00048033
-0.000399288
0.000434264
-0.000390545
0.000264803
-0.000369336
0.000200477
-0.000354714
0.000137963
-0.00033766
9.6933e-05
-0.000327598
6.75635e-05
-0.000321405
4.43538e-05
-0.000320685
2.58193e-05
-0.00032553
9.77994e-06
-6.14241e-06
-0.000337428
-0.000530357
0.00148124
-0.000520322
0.000470295
-0.000518969
0.000432911
-0.000459987
0.000205822
-0.000407105
0.000147595
-0.000363527
9.4385e-05
-0.000328136
6.15419e-05
-0.000303865
4.32926e-05
-0.000287125
2.76134e-05
-0.000277976
1.66705e-05
-0.000275401
7.20444e-06
-1.2959e-06
-0.000280247
0.00148124
0.00195154
0.00238445
0.00259027
0.00273787
0.00283225
0.00289379
0.00293708
0.0029647
0.00298137
0.00298857
0.00298728
-4.57185e-05
1.68599e-05
-3.02956e-05
-3.51386e-05
6.55181e-06
-1.71318e-05
-2.85381e-05
-2.06271e-06
-4.53774e-06
-2.24858e-05
-8.71566e-06
2.66335e-06
-1.68582e-05
-1.38169e-05
8.18936e-06
-1.12043e-05
-1.75509e-05
1.18969e-05
-5.52648e-06
-1.99781e-05
1.43004e-05
-2.04416e-05
1.49151e-05
-4.94639e-05
3.20059e-06
-3.8766e-05
-4.14603e-06
-3.17038e-05
-9.12498e-06
-2.51694e-05
-1.525e-05
-1.90196e-05
-1.99668e-05
-1.2739e-05
-2.38314e-05
-6.31272e-06
-2.64044e-05
-2.67543e-05
-5.31625e-05
-3.92182e-06
-4.62666e-05
-1.10419e-05
-3.89118e-05
-1.64798e-05
-3.15044e-05
-2.26573e-05
-2.38132e-05
-2.7658e-05
-1.59295e-05
-3.17152e-05
-7.86817e-06
-3.44658e-05
-3.46225e-05
-5.79566e-05
-1.07981e-05
-5.1071e-05
-1.79275e-05
-4.3436e-05
-2.41148e-05
-3.55283e-05
-3.05651e-05
-2.71153e-05
-3.60709e-05
-1.82723e-05
-4.05582e-05
-9.07884e-06
-4.36592e-05
-4.37013e-05
-6.43258e-05
-1.60595e-05
-5.79451e-05
-2.43082e-05
-5.01663e-05
-3.18935e-05
-4.14329e-05
-3.92985e-05
-3.18067e-05
-4.56971e-05
-2.14968e-05
-5.0868e-05
-1.06953e-05
-5.44607e-05
-5.43967e-05
-7.19463e-05
-2.13186e-05
-6.52879e-05
-3.09666e-05
-5.70383e-05
-4.01431e-05
-4.74974e-05
-4.88395e-05
-3.67605e-05
-5.6434e-05
-2.49721e-05
-6.26564e-05
-1.2469e-05
-6.69638e-05
-6.68657e-05
-8.14719e-05
-2.63798e-05
-7.45022e-05
-3.79363e-05
-6.56401e-05
-4.90052e-05
-5.50262e-05
-5.94534e-05
-4.28366e-05
-6.86236e-05
-2.92216e-05
-7.62714e-05
-1.46457e-05
-8.15398e-05
-8.15113e-05
-9.2822e-05
-3.15657e-05
-8.54538e-05
-4.53044e-05
-7.58622e-05
-5.85968e-05
-6.40413e-05
-7.12744e-05
-5.02263e-05
-8.24385e-05
-3.44274e-05
-9.20704e-05
-1.73568e-05
-9.86103e-05
-9.88682e-05
-0.000106424
-3.68654e-05
-9.86204e-05
-5.3108e-05
-8.82282e-05
-6.8989e-05
-7.50131e-05
-8.44894e-05
-5.93192e-05
-9.81324e-05
-4.08436e-05
-0.000110546
-2.07608e-05
-0.000118693
-0.000119629
-0.000122561
-4.21592e-05
-0.000114476
-6.11931e-05
-0.00010346
-8.00045e-05
-8.8809e-05
-9.91405e-05
-7.1209e-05
-0.000115732
-4.93527e-05
-0.000132402
-2.54964e-05
-0.000142549
-0.000145125
-0.000141191
-4.74119e-05
-0.000132778
-6.96064e-05
-0.000121124
-9.16579e-05
-0.000104686
-0.000115578
-8.50776e-05
-0.000135341
-5.92005e-05
-0.000158279
-3.11502e-05
-0.0001706
-0.000176276
-0.000163953
-5.1767e-05
-0.000156206
-7.73534e-05
-0.000145296
-0.000102568
-0.000127889
-0.000132986
-0.000106785
-0.000156444
-7.55325e-05
-0.000189532
-4.115e-05
-0.000204982
-0.000217426
-0.000187365
-5.5637e-05
-0.000179583
-8.51353e-05
-0.000169031
-0.000113121
-0.000150012
-0.000152004
-0.00012788
-0.000178577
-9.11322e-05
-0.00022628
-5.177e-05
-0.000244345
-0.000269196
-0.000219591
-5.62298e-05
-0.000215529
-8.91972e-05
-0.000209405
-0.000119245
-0.000192711
-0.000168698
-0.00017194
-0.000199347
-0.000127558
-0.000270661
-7.75294e-05
-0.000294373
-0.000346725
-0.000244798
-5.5849e-05
-0.000241385
-9.261e-05
-0.000237472
-0.000123158
-0.000220842
-0.000185328
-0.000203497
-0.000216693
-0.000153968
-0.00032019
-0.000102615
-0.000345726
-0.00044934
-0.00028855
-4.81067e-05
-0.000296123
-8.50369e-05
-0.000305487
-0.000113794
-0.000303581
-0.000187233
-0.000299777
-0.000220497
-0.000247626
-0.00037234
-0.00018376
-0.000409593
-0.0006331
-0.000307423
-4.05847e-05
-0.00031547
-7.69899e-05
-0.000327711
-0.000101553
-0.000329492
-0.000185452
-0.000340332
-0.000209658
-0.000296274
-0.000416398
-0.000260454
-0.000445412
-0.000893555
-0.000357318
-2.06946e-05
-0.000388717
-4.55906e-05
-0.000431127
-5.91425e-05
-0.000483831
-0.000132748
-0.000547252
-0.000146237
-0.000559331
-0.00040432
-0.000528815
-0.000475928
-0.00142237
-0.000287795
-1.31464e-05
-0.000307696
-2.56896e-05
-0.000322503
-4.43361e-05
-0.000355151
-0.0001001
-0.000368698
-0.000132689
-0.000371246
-0.000401772
-0.000322174
-0.000525001
-0.00174454
0.00297413
0.00294844
0.00290411
0.002804
0.00267132
0.00226954
0.00174454
-8.02878e-07
8.02878e-07
-1.47531e-06
6.72428e-07
-1.88522e-06
4.09918e-07
-1.99313e-06
1.07908e-07
-1.79551e-06
-1.97627e-07
-1.34101e-06
-4.54498e-07
-7.03899e-07
-6.37108e-07
-7.03899e-07
-9.06193e-07
1.70907e-06
-1.65512e-06
1.42135e-06
-2.0968e-06
8.51596e-07
-2.1791e-06
1.90206e-07
-1.94614e-06
-4.30581e-07
-1.44873e-06
-9.51911e-07
-7.59478e-07
-1.32636e-06
-1.46338e-06
-1.35027e-06
3.05934e-06
-2.40987e-06
2.48095e-06
-2.99805e-06
1.43978e-06
-3.12219e-06
3.14345e-07
-2.76704e-06
-7.85733e-07
-2.03946e-06
-1.67949e-06
-1.06216e-06
-2.30366e-06
-2.52554e-06
-1.6374e-06
4.69674e-06
-2.89284e-06
3.73639e-06
-3.53569e-06
2.08263e-06
-3.5526e-06
3.31249e-07
-3.09898e-06
-1.23935e-06
-2.27254e-06
-2.50593e-06
-1.18067e-06
-3.39553e-06
-3.70621e-06
-3.08997e-06
7.78671e-06
-5.16314e-06
5.80956e-06
-6.02217e-06
2.94166e-06
-5.98504e-06
2.94116e-07
-5.10639e-06
-2.118e-06
-3.66576e-06
-3.94655e-06
-1.88101e-06
-5.18028e-06
-5.58722e-06
-3.76031e-06
1.1547e-05
-6.24537e-06
8.29463e-06
-7.16169e-06
3.85798e-06
-6.87403e-06
6.45652e-09
-5.80125e-06
-3.19078e-06
-4.16247e-06
-5.58534e-06
-2.13383e-06
-7.20891e-06
-7.72105e-06
-8.52503e-06
2.0072e-05
-1.271e-05
1.24796e-05
-1.30949e-05
4.24287e-06
-1.19815e-05
-1.10694e-06
-9.64745e-06
-5.5248e-06
-6.68095e-06
-8.55183e-06
-3.36128e-06
-1.05286e-05
-1.10823e-05
-1.02235e-05
-1.48757e-05
-1.51706e-05
-1.36142e-05
-1.09496e-05
-7.60454e-06
-3.83276e-06
)
;

boundaryField
{
    movingWall
    {
        type            calculated;
        value           uniform 0;
    }
    fixedWalls
    {
        type            calculated;
        value           uniform 0;
    }
    frontAndBack
    {
        type            empty;
        value           nonuniform List<scalar> 0();
    }
}


// ************************************************************************* //
