/*--------------------------------*- C++ -*----------------------------------*\
  =========                 |
  \\      /  F ield         | OpenFOAM: The Open Source CFD Toolbox
   \\    /   O peration     | Website:  https://openfoam.org
    \\  /    A nd           | Version:  8
     \\/     M anipulation  |
\*---------------------------------------------------------------------------*/
FoamFile
{
    version     2.0;
    format      ascii;
    class       volScalarField;
    location    "1.91";
    object      p;
}
// * * * * * * * * * * * * * * * * * * * * * * * * * * * * * * * * * * * * * //

dimensions      [0 2 -2 0 0 0 0];

internalField   nonuniform List<scalar> 
400
(
2.62013e-15
4.39675e-15
5.60442e-15
6.54881e-15
7.26057e-15
7.78796e-15
8.19723e-15
8.59903e-15
8.87576e-15
9.06369e-15
9.18536e-15
9.19581e-15
9.12225e-15
8.99466e-15
8.68914e-15
8.2442e-15
7.6179e-15
6.84252e-15
5.80745e-15
4.46919e-15
4.97719e-15
5.50441e-15
6.23819e-15
6.92412e-15
7.49026e-15
7.92972e-15
8.2215e-15
8.63145e-15
8.89897e-15
9.05057e-15
9.22497e-15
9.21978e-15
9.07801e-15
9.00321e-15
8.85756e-15
8.40716e-15
7.76592e-15
7.18054e-15
6.43166e-15
5.56281e-15
6.35691e-15
6.53568e-15
7.00425e-15
7.4347e-15
7.89866e-15
8.23435e-15
8.34397e-15
8.63723e-15
8.92773e-15
9.09468e-15
9.24538e-15
9.26094e-15
9.14543e-15
9.06951e-15
9.01535e-15
8.64747e-15
8.05364e-15
7.65735e-15
7.0797e-15
6.55704e-15
7.21376e-15
7.36131e-15
7.73196e-15
8.03405e-15
8.34584e-15
8.55356e-15
8.63495e-15
8.87513e-15
9.03698e-15
9.19722e-15
9.15755e-15
9.17939e-15
9.21519e-15
9.3444e-15
9.27972e-15
8.99696e-15
8.3934e-15
8.14682e-15
7.88653e-15
7.37272e-15
8.05206e-15
8.20484e-15
8.42713e-15
8.40546e-15
8.79811e-15
8.8995e-15
9.03519e-15
9.03843e-15
9.12642e-15
9.3416e-15
9.34644e-15
9.38822e-15
9.5241e-15
9.70785e-15
9.63599e-15
9.33573e-15
8.79905e-15
8.45987e-15
8.32501e-15
8.12155e-15
8.66811e-15
8.72411e-15
8.75767e-15
8.71402e-15
9.15309e-15
9.31423e-15
9.43734e-15
9.37104e-15
9.16229e-15
9.55614e-15
9.51807e-15
9.76694e-15
9.86163e-15
9.82286e-15
9.86249e-15
9.78093e-15
9.14479e-15
8.91734e-15
8.68014e-15
8.73641e-15
9.15987e-15
9.27869e-15
9.17815e-15
8.88904e-15
9.35497e-15
9.78299e-15
9.74137e-15
9.62214e-15
9.31581e-15
9.80847e-15
9.72013e-15
1.00635e-14
1.02667e-14
1.02226e-14
9.98045e-15
9.75447e-15
9.48623e-15
9.36488e-15
9.25198e-15
9.18784e-15
9.50484e-15
9.71898e-15
9.71944e-15
9.50064e-15
9.68033e-15
9.79525e-15
9.97853e-15
9.6107e-15
9.71494e-15
9.7503e-15
9.61521e-15
1.01542e-14
1.0301e-14
1.01301e-14
1.00492e-14
9.80339e-15
9.70945e-15
9.61352e-15
9.76197e-15
9.60312e-15
1.01134e-14
1.00761e-14
1.02961e-14
1.01887e-14
1.00439e-14
9.87186e-15
9.95517e-15
9.70157e-15
9.92476e-15
9.97477e-15
1.00088e-14
1.02447e-14
1.0143e-14
9.98171e-15
9.86327e-15
9.86255e-15
9.99772e-15
1.00227e-14
1.0014e-14
9.95781e-15
1.03388e-14
1.0498e-14
1.04324e-14
1.07044e-14
1.08363e-14
1.02647e-14
9.92171e-15
9.82625e-15
1.00126e-14
1.03766e-14
1.03195e-14
1.04243e-14
1.02523e-14
1.00147e-14
9.79985e-15
1.00074e-14
1.0385e-14
1.01808e-14
1.02212e-14
1.01007e-14
1.06433e-14
1.03652e-14
1.06009e-14
1.10614e-14
1.14356e-14
1.08778e-14
1.03833e-14
1.02267e-14
1.03126e-14
1.03966e-14
1.0324e-14
1.04061e-14
1.09153e-14
1.04912e-14
1.02067e-14
1.01524e-14
1.06656e-14
1.081e-14
1.03645e-14
1.04609e-14
1.02565e-14
1.0495e-14
1.07647e-14
1.15806e-14
1.14131e-14
1.12322e-14
1.06833e-14
1.04648e-14
1.0634e-14
1.06545e-14
1.04865e-14
1.06325e-14
1.12814e-14
1.10189e-14
1.08222e-14
1.0927e-14
1.10527e-14
1.0847e-14
1.0726e-14
1.07349e-14
1.08807e-14
1.09748e-14
1.13978e-14
1.1751e-14
1.12903e-14
1.15508e-14
1.07623e-14
1.04806e-14
1.08808e-14
1.16856e-14
1.12267e-14
1.06299e-14
1.09247e-14
1.15977e-14
1.12224e-14
1.16366e-14
1.18771e-14
1.06492e-14
1.09466e-14
1.09201e-14
1.13714e-14
1.16852e-14
1.21143e-14
1.21959e-14
1.18106e-14
1.17289e-14
1.14065e-14
1.11205e-14
1.13536e-14
1.15356e-14
1.13975e-14
1.07054e-14
1.02759e-14
1.10418e-14
1.17018e-14
1.20403e-14
1.25013e-14
1.20596e-14
1.13079e-14
1.11182e-14
1.18017e-14
1.23761e-14
1.28069e-14
1.23081e-14
1.20437e-14
1.19856e-14
1.18204e-14
1.13561e-14
1.14204e-14
1.18276e-14
1.174e-14
1.0618e-14
9.94461e-15
1.08957e-14
1.1396e-14
1.19568e-14
1.2434e-14
1.22697e-14
1.19748e-14
1.20253e-14
1.25858e-14
1.3027e-14
1.28331e-14
1.25695e-14
1.21633e-14
1.22115e-14
1.23079e-14
1.22551e-14
1.17247e-14
1.16214e-14
1.15064e-14
1.01991e-14
9.63744e-15
1.04575e-14
1.10869e-14
1.16104e-14
1.24615e-14
1.19826e-14
1.17114e-14
1.20547e-14
1.23079e-14
1.30235e-14
1.27245e-14
1.2592e-14
1.23382e-14
1.24818e-14
1.26478e-14
1.24317e-14
1.21798e-14
1.15226e-14
1.08641e-14
1.02499e-14
9.52264e-15
1.05562e-14
1.07835e-14
1.15452e-14
1.17709e-14
1.1693e-14
1.21037e-14
1.18961e-14
1.28783e-14
1.2903e-14
1.26931e-14
1.18949e-14
1.20012e-14
1.30675e-14
1.31217e-14
1.25301e-14
1.13212e-14
1.14937e-14
1.08816e-14
1.03832e-14
1.01053e-14
1.03967e-14
1.07097e-14
1.11789e-14
1.13505e-14
1.19542e-14
1.19998e-14
1.22701e-14
1.288e-14
1.31677e-14
1.26319e-14
1.22057e-14
1.22443e-14
1.29315e-14
1.41753e-14
1.31836e-14
1.08647e-14
1.01912e-14
1.0193e-14
9.93266e-15
9.86032e-15
1.09356e-14
1.08425e-14
1.10899e-14
1.14394e-14
1.14265e-14
1.17736e-14
1.23063e-14
1.3198e-14
1.44506e-14
1.2868e-14
1.15493e-14
1.23429e-14
1.32468e-14
1.45031e-14
1.32798e-14
1.07409e-14
9.48678e-15
8.86833e-15
9.61535e-15
1.00077e-14
1.05648e-14
1.07075e-14
1.06991e-14
1.16771e-14
1.14977e-14
1.13978e-14
1.23009e-14
)
;

boundaryField
{
    movingWall
    {
        type            zeroGradient;
    }
    fixedWalls
    {
        type            zeroGradient;
    }
    left
    {
        type            cyclic;
    }
    right
    {
        type            cyclic;
    }
    frontAndBack
    {
        type            empty;
    }
}


// ************************************************************************* //
