/*--------------------------------*- C++ -*----------------------------------*\
  =========                 |
  \\      /  F ield         | OpenFOAM: The Open Source CFD Toolbox
   \\    /   O peration     | Website:  https://openfoam.org
    \\  /    A nd           | Version:  8
     \\/     M anipulation  |
\*---------------------------------------------------------------------------*/
FoamFile
{
    version     2.0;
    format      ascii;
    class       volScalarField;
    location    "49";
    object      p;
}
// * * * * * * * * * * * * * * * * * * * * * * * * * * * * * * * * * * * * * //

dimensions      [0 2 -2 0 0 0 0];

internalField   nonuniform List<scalar> 
116
(
-1.72657e-07
-0.00106615
-0.00162205
-0.00343969
0.00111347
-0.00871756
5.672e-05
-0.000712745
-0.000386795
-0.00407284
-0.00168032
-0.0030382
0.000968875
5.86374e-05
-0.000330835
-0.0030053
-0.00561362
-0.00810468
0.00161992
0.00108204
-0.000131483
-0.00332443
-0.00729765
-0.00887756
0.00176081
0.0012031
-0.000559641
-0.00436444
-0.00909773
-0.0108029
0.00107113
0.000797266
-0.000994634
-0.00440436
-0.00908218
-0.0108553
0.00123926
0.000814504
-0.000621931
-0.00388575
-0.00845903
-0.0111465
0.000261016
0.000982898
0.000427997
-0.00170001
-0.00500811
-0.00733849
0.00163683
0.000924086
0.0023151
0.000535039
-0.00243758
-0.00540893
-0.00368251
0.00426898
0.00441354
0.00306067
-0.00041901
-0.00273898
0.00203046
0.0109522
0.00939876
0.0148736
-0.0021434
0.00191902
0.0048175
0.00835497
-0.00875562
-0.00620183
-0.00256977
0.00079383
-0.00991549
-0.00876249
-0.00700595
-0.00382874
-0.0111953
-0.0102253
-0.00952485
-0.00651673
-0.0115028
-0.00997866
-0.00995077
-0.00647414
-0.011743
-0.00967559
-0.0105745
-0.00322916
-0.00732736
-0.00519504
-0.00425599
0.00650911
-0.00725881
-0.00496036
-0.00300408
0.014439
-0.00275283
0.00437709
0.0182896
0.0554124
0.018929
0.0179513
0.0177007
0.0211509
0.016713
0.0168033
0.0147641
0.017146
0.0129208
0.0136211
0.0117268
0.0128111
0.00925371
0.0170679
0.010337
0.0148429
)
;

boundaryField
{
    movingWall
    {
        type            zeroGradient;
    }
    fixedWalls
    {
        type            zeroGradient;
    }
    frontAndBack
    {
        type            empty;
    }
}


// ************************************************************************* //
