/*--------------------------------*- C++ -*----------------------------------*\
  =========                 |
  \\      /  F ield         | OpenFOAM: The Open Source CFD Toolbox
   \\    /   O peration     | Website:  https://openfoam.org
    \\  /    A nd           | Version:  8
     \\/     M anipulation  |
\*---------------------------------------------------------------------------*/
FoamFile
{
    version     2.0;
    format      ascii;
    class       surfaceScalarField;
    location    "91";
    object      phi;
}
// * * * * * * * * * * * * * * * * * * * * * * * * * * * * * * * * * * * * * //

dimensions      [0 3 -1 0 0 0 0];

internalField   nonuniform List<scalar> 
34404
(
0.00534162
-8.29021e-06
4.32434e-09
0.00536639
-2.47607e-05
-9.02838e-09
0.00540684
-4.04358e-05
-1.22746e-08
0.0054615
-5.46565e-05
-6.73009e-09
0.0055284
-6.68967e-05
-3.47976e-09
0.00560514
-7.67302e-05
-2.73441e-09
0.00568899
-8.38547e-05
-1.35953e-09
0.00577711
-8.81189e-05
4.0003e-10
0.00586665
-8.95414e-05
2.97215e-09
0.00595496
-8.83115e-05
5.08209e-09
0.00603972
-8.47713e-05
6.64681e-09
0.00611909
-7.93759e-05
7.50103e-09
0.00619172
-7.26384e-05
7.60306e-09
0.00625678
-6.50698e-05
7.07868e-09
0.0063139
-5.71279e-05
6.15137e-09
0.00636308
-4.91854e-05
5.05412e-09
0.0064046
-4.15162e-05
3.93367e-09
0.00643889
-3.42936e-05
2.88846e-09
0.00646648
-2.75931e-05
1.91455e-09
0.00648787
-2.13942e-05
1.04469e-09
0.00650346
-1.5585e-05
3.23783e-10
0.00651343
-9.97582e-06
-5.06759e-12
0.00651775
-4.31884e-06
-1.59511e-10
0.00651609
1.66018e-06
1.26745e-10
0.00650786
8.2292e-06
6.80655e-10
0.00649225
1.56113e-05
1.37587e-09
0.0064683
2.3942e-05
2.05645e-09
0.00643504
3.32579e-05
2.67843e-09
0.00639158
4.34571e-05
3.11221e-09
0.00633724
5.43377e-05
3.16673e-09
0.00627168
6.55618e-05
3.14214e-09
0.00619491
7.67659e-05
2.35418e-09
0.00610743
8.74813e-05
2.28449e-09
0.00601008
9.73498e-05
4.74801e-10
0.00590417
0.000105903
1.47409e-09
0.00579122
0.000112949
-1.91735e-09
0.00567313
0.00011809
2.03413e-09
0.00555178
0.000121358
-5.25121e-09
0.00542931
0.000122461
5.49715e-09
0.00530787
0.000121451
-1.10739e-08
0.00518944
0.000118421
1.394e-08
0.00507681
0.000112654
-2.26855e-08
0.00497102
0.000105755
3.13805e-08
0.00487693
9.4134e-05
-4.48841e-08
0.00479283
8.40355e-05
6.30565e-08
0.00472883
6.40899e-05
-8.26344e-08
0.00467618
5.25428e-05
1.07911e-07
0.00465673
1.95777e-05
-1.32195e-07
0.00464619
1.04084e-05
1.26936e-07
-4.22523e-05
-1.02075e-07
0.00534185
-1.68107e-05
4.08317e-09
0.00536726
-5.01578e-05
-9.30899e-09
0.00540875
-8.191e-05
-1.2322e-08
0.00546482
-0.000110722
-6.80892e-09
0.00553342
-0.0001355
-3.66751e-09
0.00561207
-0.000155374
-2.84926e-09
0.00569795
-0.00016973
-1.33413e-09
0.00578808
-0.000178256
5.71981e-10
0.00587953
-0.00018099
3.28622e-09
0.00596953
-0.000178321
5.49824e-09
0.00605571
-0.00017096
7.09524e-09
0.00613618
-0.000159851
7.90609e-09
0.00620959
-0.000146056
7.91353e-09
0.00627514
-0.000130627
7.28074e-09
0.00633251
-0.000114499
6.26889e-09
0.00638174
-9.84283e-05
5.13649e-09
0.00642319
-8.29654e-05
4.02296e-09
0.00645735
-6.84571e-05
2.99244e-09
0.00648481
-5.50528e-05
2.01829e-09
0.00650612
-4.27071e-05
1.12844e-09
0.00652172
-3.1187e-05
3.56659e-10
0.00653184
-2.00971e-05
2.27999e-11
0.00653645
-8.92228e-06
-1.54454e-10
0.0065352
2.90798e-06
1.57775e-10
0.00652747
1.59549e-05
8.10139e-10
0.0065124
3.06851e-05
1.59465e-09
0.00648895
4.73864e-05
2.33814e-09
0.00645607
6.61385e-05
2.99541e-09
0.00641278
8.6735e-05
3.45061e-09
0.00635836
0.000108758
3.51195e-09
0.00629241
0.00013151
3.50565e-09
0.00621493
0.00015424
2.72256e-09
0.00612643
0.000175977
2.6125e-09
0.00602779
0.00019599
7.33094e-10
0.00592038
0.000213309
1.73443e-09
0.00580576
0.000227571
-1.63105e-09
0.00568592
0.00023793
2.28453e-09
0.00556275
0.000244531
-4.9571e-09
0.00543852
0.000246683
5.56375e-09
0.0053153
0.000244681
-1.08206e-08
0.00519525
0.000238466
1.37654e-08
0.00508095
0.000226974
-2.22455e-08
0.00497376
0.000212914
3.07552e-08
0.00487812
0.00018982
-4.4205e-08
0.00479292
0.000169174
6.17303e-08
0.00472751
0.000129578
-8.15002e-08
0.00467415
0.000105795
1.06447e-07
0.00465384
4.00222e-05
-1.30615e-07
0.0046432
2.09181e-05
1.258e-07
-8.52593e-05
-1.03299e-07
0.0053423
-2.57765e-05
4.19066e-09
0.00536904
-7.68888e-05
-9.85753e-09
0.00541269
-0.000125544
-1.29323e-08
0.00547165
-0.000169678
-7.20666e-09
0.00554375
-0.000207594
-3.95858e-09
0.00562631
-0.000237937
-3.0112e-09
0.00571633
-0.000259745
-1.23471e-09
0.0058106
-0.000272524
1.01896e-09
0.00590593
-0.000276331
4.06338e-09
0.00599939
-0.000271784
6.55e-09
0.00608844
-0.000260016
8.26564e-09
0.00617111
-0.000242533
9.00245e-09
0.00624607
-0.000221023
8.77364e-09
0.00631257
-0.00019714
7.84142e-09
0.0063704
-0.000172334
6.58068e-09
0.00641973
-0.000147762
5.30719e-09
0.00646102
-0.000124257
4.12911e-09
0.0064949
-0.00010234
3.04415e-09
0.00652207
-8.22303e-05
1.9842e-09
0.00654322
-6.38502e-05
9.53439e-10
0.00655885
-4.68241e-05
1.97599e-10
0.00656928
-3.05223e-05
-2.1717e-10
0.00657448
-1.41201e-05
-4.268e-10
0.00657409
3.29691e-06
-3.55803e-11
0.00656741
2.26331e-05
7.38402e-10
0.00655345
4.46433e-05
1.66978e-09
0.00653103
6.98006e-05
2.57091e-09
0.00649892
9.82421e-05
3.38652e-09
0.00645601
0.00012965
3.9791e-09
0.0064014
0.000163362
4.11392e-09
0.00633463
0.000198273
4.12805e-09
0.00625568
0.000233188
3.29349e-09
0.00616507
0.000266579
3.14939e-09
0.00606377
0.000297296
1.20843e-09
0.00595326
0.00032382
2.10653e-09
0.00583521
0.000345617
-1.45333e-09
0.00571178
0.000361362
2.48518e-09
0.00558494
0.000371376
-4.99121e-09
0.00545709
0.000374522
5.69836e-09
0.00533033
0.000371452
-1.08348e-08
0.00520691
0.000361874
1.39845e-08
0.00508939
0.00034452
-2.2247e-08
0.00497919
0.000323077
3.10534e-08
0.00488069
0.000288368
-4.43094e-08
0.00479293
0.000256867
6.23877e-08
0.00472516
0.000197431
-8.24315e-08
0.00466984
0.000161005
1.08123e-07
0.00464847
6.15325e-05
-1.342e-07
0.00463712
3.21347e-05
1.29542e-07
-0.000130462
-1.08548e-07
0.00534299
-3.54354e-05
4.45361e-09
0.00537179
-0.000105674
-1.07136e-08
0.00541877
-0.000172513
-1.40472e-08
0.00548221
-0.00023311
-7.92695e-09
0.00555972
-0.000285101
-4.42574e-09
0.00564838
-0.000326588
-3.28708e-09
0.00574483
-0.0003562
-1.14039e-09
0.00584553
-0.000373222
1.70627e-09
0.00594692
-0.000377726
5.35166e-09
0.00604573
-0.000370604
8.33217e-09
0.0061392
-0.000353497
1.02664e-08
0.00622526
-0.000328599
1.08561e-08
0.00630257
-0.000298344
1.01829e-08
0.0063705
-0.000265085
8.71324e-09
0.00642901
-0.000230846
7.02788e-09
0.00647844
-0.000197203
5.52199e-09
0.00651946
-0.00016528
4.23704e-09
0.00655289
-0.000135768
3.05713e-09
0.00657961
-0.000108957
1.84679e-09
0.00660048
-8.4723e-05
5.91329e-10
0.00661618
-6.25214e-05
-1.6796e-10
0.0066271
-4.14355e-05
-7.62412e-10
0.00663325
-2.02697e-05
-9.96453e-10
0.00663423
2.3107e-06
-4.98288e-10
0.00662923
2.76352e-05
5.48288e-10
0.00661706
5.68167e-05
1.78284e-09
0.00659628
9.05688e-05
2.99419e-09
0.00656541
0.000129109
4.10925e-09
0.00652306
0.000171996
4.94972e-09
0.00646815
0.000218273
5.20955e-09
0.00640006
0.000266353
5.25752e-09
0.00631874
0.000314504
4.32184e-09
0.00622477
0.000360545
4.08105e-09
0.00611923
0.000402833
1.91193e-09
0.00600381
0.000439233
2.68448e-09
0.00588039
0.000469042
-1.24856e-09
0.00575134
0.000490408
2.78765e-09
0.0056188
0.000503923
-4.98547e-09
0.00548537
0.000507948
6.04427e-09
0.00535318
0.000503652
-1.08303e-08
0.00522461
0.00049043
1.43636e-08
0.00510219
0.000466963
-2.22441e-08
0.00498744
0.000437794
3.1528e-08
0.00488461
0.000391242
-4.44852e-08
0.00479304
0.000348379
6.3239e-08
0.0047216
0.000268949
-8.36629e-08
0.00466354
0.000218953
1.10484e-07
0.00464033
8.48851e-05
-1.38804e-07
0.0046286
4.37299e-05
1.34792e-07
-0.000178827
-1.16174e-07
0.00534395
-4.60561e-05
4.80346e-09
0.00537559
-0.000137305
-1.19204e-08
0.00542721
-0.000224112
-1.56913e-08
0.00549688
-0.000302771
-9.06073e-09
0.00558195
-0.000370168
-5.21637e-09
0.00567914
-0.000423767
-3.79629e-09
0.00578463
-0.000461696
-1.08476e-09
0.00589436
-0.000482955
2.71562e-09
0.00600425
-0.000487621
7.36296e-09
0.00611055
-0.000476913
1.11646e-08
0.00621016
-0.000453122
1.34203e-08
0.00630086
-0.000419313
1.36932e-08
0.00638136
-0.000378855
1.22481e-08
0.0064512
-0.000334937
9.92316e-09
0.00651057
-0.000290226
7.62522e-09
0.00656011
-0.00024674
5.84461e-09
0.00660071
-0.000205886
4.4745e-09
0.00663347
-0.000168532
3.1886e-09
0.00665954
-0.000135035
1.72775e-09
0.00668003
-0.000105211
3.34515e-10
0.00669582
-7.83112e-05
-8.25437e-10
0.00670746
-5.30672e-05
-1.39129e-09
0.006715
-2.78084e-05
-1.662e-09
0.00671799
-6.82271e-07
-1.13794e-09
0.00671543
3.01918e-05
3.53753e-10
0.00670586
6.63888e-05
2.08924e-09
0.00668748
0.000108944
3.79081e-09
0.00665839
0.000158189
5.37188e-09
0.00661684
0.00021354
6.59835e-09
0.00656144
0.000273666
7.0571e-09
0.0064914
0.000336386
7.14568e-09
0.00640661
0.000399292
6.01498e-09
0.00630774
0.000459405
5.56512e-09
0.00619609
0.000514485
3.00163e-09
0.00607364
0.000561681
3.62077e-09
0.00594256
0.00060012
-7.26958e-10
0.00580558
0.000627381
3.36636e-09
0.00566507
0.000644447
-4.78848e-09
0.00552386
0.000649144
6.43079e-09
0.00538421
0.000643319
-1.07173e-08
0.00524858
0.000626046
1.44756e-08
0.00511953
0.000596036
-2.18857e-08
0.00499859
0.000558695
3.1261e-08
0.00488997
0.000499915
-4.36939e-08
0.00479325
0.000445033
6.27254e-08
0.00471683
0.000345454
-8.26558e-08
0.0046553
0.000280373
1.10622e-07
0.00462942
0.000110897
-1.40452e-07
0.00461823
5.47862e-05
1.37388e-07
-0.000230857
-1.23966e-07
0.00534521
-5.79397e-05
5.26858e-09
0.00538059
-0.000172668
-1.34146e-08
0.0054383
-0.000281802
-1.78582e-08
0.0055162
-0.000380658
-1.06253e-08
0.00561129
-0.000465257
-6.39231e-09
0.00571983
-0.000532304
-4.61079e-09
0.00583741
-0.000579272
-1.06799e-09
0.00595923
-0.000604779
4.19747e-09
0.00608047
-0.000608875
1.04479e-08
0.00619672
-0.00059318
1.55783e-08
0.00630442
-0.000560837
1.82684e-08
0.00640115
-0.000516066
1.78788e-08
0.00648572
-0.000463439
1.50717e-08
0.00655795
-0.000407172
1.13638e-08
0.00661836
-0.000350647
8.21352e-09
0.00666794
-0.000296324
6.193e-09
0.00670793
-0.000245886
4.83849e-09
0.00673977
-0.000200373
3.45119e-09
0.00676496
-0.000160221
1.51483e-09
0.00678492
-0.00012518
-4.15125e-11
0.00680086
-9.42448e-05
-1.64833e-09
0.0068135
-6.57033e-05
-2.42058e-09
0.00682299
-3.73019e-05
-2.34854e-09
0.00682879
-6.47921e-06
-1.73775e-09
0.00682966
2.93263e-05
8.70815e-11
0.00682372
7.23258e-05
2.60185e-09
0.00680867
0.000123985
5.04567e-09
0.00678205
0.0001848
7.25266e-09
0.00674158
0.000254008
8.97807e-09
0.00668544
0.000329798
9.6972e-09
0.00661259
0.000409217
9.8716e-09
0.0065229
0.00048898
8.49825e-09
0.00641719
0.000565105
7.74801e-09
0.00629707
0.000634605
4.58211e-09
0.00616496
0.000693781
4.93741e-09
0.00602349
0.000741595
1.01706e-10
0.00587584
0.000775026
4.08882e-09
0.00572471
0.000795581
-4.52006e-09
0.00557326
0.000800588
6.67434e-09
0.00542388
0.0007927
-1.0416e-08
0.00527911
0.000770802
1.41712e-08
0.0051416
0.000733574
-2.07985e-08
0.00501277
0.00068749
3.0022e-08
0.00489685
0.000615876
-4.11212e-08
0.00479355
0.000548276
6.01381e-08
0.00471084
0.000428236
-7.7971e-08
0.00464504
0.000346067
1.0658e-07
0.00461587
0.000140204
-1.35931e-07
0.00460658
6.39471e-05
1.3367e-07
-0.000285535
-1.29226e-07
0.00534682
-7.143e-05
5.89348e-09
0.00538693
-0.000212764
-1.5096e-08
0.00545241
-0.000347258
-2.06216e-08
0.00554084
-0.000469078
-1.26897e-08
0.00564885
-0.00057326
-8.10598e-09
0.00577212
-0.000655565
-5.86993e-09
0.00590543
-0.000712583
-1.09781e-09
0.00604304
-0.000742391
6.32641e-09
0.00617909
-0.000744941
1.50609e-08
0.00630823
-0.000722344
2.23252e-08
0.00642627
-0.000678901
2.56448e-08
0.00653059
-0.000620409
2.40295e-08
0.00662017
-0.00055304
1.885e-08
0.00669525
-0.000482268
1.28658e-08
0.00675685
-0.000412257
8.5511e-09
0.00680639
-0.000345871
6.46588e-09
0.00684554
-0.000285036
5.3416e-09
0.00687613
-0.000230971
3.8531e-09
0.00690013
-0.000184217
1.34695e-09
0.00691941
-0.000144459
-8.30237e-10
0.00693555
-0.000110385
-2.95347e-09
0.00694958
-7.97267e-05
-3.87703e-09
0.00696173
-4.94557e-05
-3.85883e-09
0.00697137
-1.6112e-05
-3.38708e-09
0.00697692
2.37827e-05
-6.85152e-10
0.00697595
7.32911e-05
2.95843e-09
0.00696545
0.000134475
6.59941e-09
0.00694217
0.000208067
9.78684e-09
0.00690309
0.000293076
1.22761e-08
0.00684584
0.000387041
1.33657e-08
0.00676906
0.000485984
1.36713e-08
0.00667256
0.000585462
1.20099e-08
0.00655747
0.000680187
1.08896e-08
0.00642585
0.00076622
6.91612e-09
0.00628077
0.000838853
6.75397e-09
0.00612549
0.000896875
9.47859e-10
0.00596383
0.000936681
4.83387e-09
0.00579896
0.000960449
-4.19838e-09
0.00563439
0.000965155
6.73382e-09
0.00547277
0.000954335
-9.81835e-09
0.00531657
0.000926985
1.3425e-08
0.00516861
0.000881557
-1.88215e-08
0.0050301
0.000825969
2.7825e-08
0.00490534
0.000740666
-3.66648e-08
0.00479385
0.00065971
5.5472e-08
0.00470367
0.00051849
-6.93347e-08
0.0046326
0.000417036
9.80974e-08
0.00460008
0.00017285
-1.23578e-07
0.00459335
7.05608e-05
1.21113e-07
-0.000339052
-1.29394e-07
0.00534882
-8.69245e-05
6.72594e-09
0.00539481
-0.000258732
-1.67842e-08
0.00547
-0.000422422
-2.41479e-08
0.00557167
-0.000570734
-1.53365e-08
0.00569605
-0.000697633
-1.06694e-08
0.00583815
-0.000797651
-7.77084e-09
0.0059917
-0.000866133
-1.13528e-09
0.00614969
-0.000900391
9.54673e-09
0.00630483
-0.000900105
2.20637e-08
0.00645044
-0.00086799
3.24769e-08
0.00658149
-0.000809982
3.64869e-08
0.00669514
-0.000734094
3.27387e-08
0.00679073
-0.000648657
2.37071e-08
0.00686916
-0.000560706
1.41145e-08
0.00693208
-0.000475185
8.22694e-09
0.00698145
-0.000395256
6.6435e-09
0.00701943
-0.000323018
6.04516e-09
0.00704836
-0.0002599
4.35445e-09
0.00707075
-0.000206612
1.02869e-09
0.00708909
-0.000162796
-2.36989e-09
0.00710548
-0.000126767
-5.19453e-09
0.00712131
-9.55573e-05
-6.50759e-09
0.00713702
-6.51562e-05
-6.23761e-09
0.00715181
-3.08953e-05
-4.66896e-09
0.00716365
1.19463e-05
-2.08538e-09
0.00716939
6.75481e-05
2.70441e-09
0.00716503
0.000138824
7.85051e-09
0.00714624
0.000226841
1.25564e-08
0.00710899
0.000330309
1.6485e-08
0.00705013
0.000445885
1.84113e-08
0.00696789
0.000568201
1.89273e-08
0.0068621
0.000691241
1.67609e-08
0.00673428
0.000807992
1.50212e-08
0.00658722
0.000913272
9.95712e-09
0.00642491
0.00100116
9.00903e-09
0.00625152
0.00107026
2.18028e-09
0.00607172
0.00111648
5.55123e-09
0.00588934
0.00114283
-3.8109e-09
0.00570827
0.00114622
6.57158e-09
0.00553147
0.00113114
-8.93694e-09
0.00536133
0.00109712
1.22383e-08
0.00520074
0.00104216
-1.61288e-08
0.00505072
0.000975964
2.48808e-08
0.00491545
0.000875966
-3.09595e-08
0.00479406
0.000781045
4.97118e-08
0.00469526
0.000617347
-5.8001e-08
0.00461781
0.000494402
8.70721e-08
0.00458251
0.00020826
-1.05201e-07
0.00457601
7.69564e-05
1.00301e-07
-0.000384143
-1.24074e-07
0.00535129
-0.000104884
7.82408e-09
0.00540443
-0.000311854
-1.8108e-08
0.0054916
-0.000509569
-2.86969e-08
0.00560969
-0.000688806
-1.85948e-08
0.00575464
-0.000842567
-1.4796e-08
0.00592064
-0.000963633
-1.07908e-08
0.0061001
-0.0010456
-1.0234e-09
0.00628436
-0.00108467
1.47614e-08
0.00646405
-0.00107983
3.36433e-08
0.00663059
-0.00103457
4.83742e-08
0.00677781
-0.000957254
5.20246e-08
0.00690274
-0.000859071
4.38128e-08
0.00700538
-0.000751327
2.84227e-08
0.0070876
-0.000642939
1.2573e-08
0.00715192
-0.000539508
6.52479e-09
0.00720091
-0.000444252
6.76e-09
0.00723723
-0.000359349
7.06523e-09
0.00726383
-0.000286503
4.82303e-09
0.00728394
-0.000226726
2.80324e-10
0.00730083
-0.000179675
-5.16915e-09
0.0073173
-0.000143227
-8.95963e-09
0.00733529
-0.000113545
-1.07316e-08
0.00735549
-8.53375e-05
-1.04555e-08
0.00737695
-5.23487e-05
-8.98308e-09
0.00739706
-8.15992e-06
-7.28465e-09
0.00741173
5.28758e-05
6.79538e-10
0.00741561
0.000134935
8.43039e-09
0.0074029
0.000239544
1.47022e-08
0.00736817
0.000365011
2.02142e-08
0.00730722
0.000506812
2.3464e-08
0.00721771
0.000657689
2.48165e-08
0.00709946
0.000809465
2.23306e-08
0.00695464
0.000952794
1.98235e-08
0.00678708
0.00108082
1.34393e-08
0.00660208
0.00118614
1.15136e-08
0.00640515
0.00126719
3.52099e-09
0.00620206
0.00131956
6.16647e-09
0.00599757
0.00134733
-3.41934e-09
0.00579599
0.00134779
6.10026e-09
0.00560064
0.00132651
-7.90191e-09
0.00541376
0.00128399
1.07001e-08
0.00523814
0.00121779
-1.30802e-08
0.00507475
0.00113933
2.16609e-08
0.00492706
0.00102369
-2.49116e-08
0.00479411
0.000913949
4.45416e-08
0.00468551
0.000725988
-4.63212e-08
0.00460077
0.000579064
7.67674e-08
0.00456266
0.000246458
-8.67961e-08
0.00454875
9.07975e-05
7.4739e-08
-0.000411306
-1.17e-07
0.00535428
-0.00012584
9.297e-09
0.005416
-0.00037355
-1.83685e-08
0.00551782
-0.000611358
-3.46026e-08
0.00565605
-0.000827018
-2.22399e-08
0.00582672
-0.00101321
-2.1849e-08
0.00602297
-0.00115987
-1.60512e-08
0.00623564
-0.00125827
-1.91845e-09
0.00645386
-0.0013029
2.21722e-08
0.00666518
-0.0012912
5.34582e-08
0.00685826
-0.00122773
7.53531e-08
0.0070254
-0.00112447
7.57859e-08
0.00716368
-0.000997404
5.63598e-08
0.0072743
-0.000861972
2.49449e-08
0.00736061
-0.000729259
7.57736e-09
0.0074262
-0.000605097
2.22073e-09
0.00747425
-0.000492312
5.56926e-09
0.00750796
-0.000393064
8.0902e-09
0.00753094
-0.000309489
4.8084e-09
0.00754737
-0.000243151
-2.2621e-09
0.00756154
-0.000193833
-1.00113e-08
0.00757724
-0.000158911
-1.48092e-08
0.00759718
-0.000133471
-1.71355e-08
0.00762243
-0.000110574
-1.75215e-08
0.00765199
-8.1886e-05
-1.56526e-08
0.00768251
-3.86738e-05
-1.18923e-08
0.00770876
2.66317e-05
-3.90054e-09
0.00772366
0.000120033
6.12299e-09
0.00771937
0.000243812
1.49259e-08
0.00768861
0.000395752
2.13281e-08
0.00762562
0.000569772
2.54755e-08
0.00752721
0.000756079
2.82656e-08
0.00739311
0.000943536
2.65899e-08
0.00722629
0.00111959
2.41373e-08
0.00703208
0.00127501
1.66853e-08
0.00681765
0.00140056
1.36487e-08
0.00659042
0.00149441
4.41288e-09
0.00635772
0.00155225
6.32287e-09
0.00612552
0.00157953
-3.17879e-09
0.00589871
0.00157459
5.26853e-09
0.00568087
0.00154435
-6.86769e-09
0.00547414
0.0014907
8.96376e-09
0.00528091
0.00141103
-1.00833e-08
0.00510223
0.001318
1.85794e-08
0.00493997
0.00118596
-1.92534e-08
0.00479397
0.00105991
4.13223e-08
0.00467434
0.000845651
-3.6003e-08
0.00458172
0.000671614
6.9859e-08
0.00453773
0.00029053
-7.41275e-08
0.00450339
0.000125087
5.1025e-08
-0.000412308
-1.14795e-07
0.00535787
-0.000150384
1.13868e-08
0.00542967
-0.000445337
-1.64769e-08
0.00554924
-0.000730881
-4.21749e-08
0.00571191
-0.000989662
-2.53787e-08
0.0059147
-0.00121597
-3.36962e-08
0.00614925
-0.0013944
-2.43465e-08
0.00640466
-0.00151367
-5.36081e-09
0.00666702
-0.00156529
2.92936e-08
0.00691925
-0.00154352
8.28597e-08
0.00714598
-0.00145457
1.18971e-07
0.00733738
-0.00131598
1.14524e-07
0.00749087
-0.00115097
7.0839e-08
0.00760983
-0.000980952
1.88497e-08
0.00769984
-0.000819259
-7.00572e-09
0.00776572
-0.00067097
-1.25364e-08
0.0078112
-0.000537786
-7.37817e-10
0.00783993
-0.000421798
7.3839e-09
0.00785634
-0.000325906
3.74102e-09
0.00786583
-0.000252638
-7.04888e-09
0.00787411
-0.00020209
-1.68638e-08
0.00788629
-0.00017107
-2.26094e-08
0.00790622
-0.000153382
-2.59524e-08
0.00793568
-0.000140002
-2.7333e-08
0.00797368
-0.000119864
-2.58044e-08
0.00801632
-8.12897e-05
-2.00771e-08
0.00805677
-1.38026e-05
-1.60079e-08
0.00808617
9.06391e-05
-6.51504e-09
0.00809411
0.000235868
4.12757e-09
0.0080707
0.00041915
1.46459e-08
0.00800787
0.000632577
2.06084e-08
0.00790082
0.000863109
2.46374e-08
0.00774877
0.00109556
2.41258e-08
0.00755548
0.00131285
2.32572e-08
0.0073282
0.00150227
1.66914e-08
0.00707673
0.00165202
1.35572e-08
0.00681129
0.00175985
3.43464e-09
0.00654147
0.00182207
4.92105e-09
0.00627494
0.00184607
-3.75626e-09
0.0060174
0.00183213
3.71857e-09
0.00577261
0.00178915
-6.13927e-09
0.0055426
0.0017207
7.13169e-09
0.00532907
0.00162458
-7.48349e-09
0.00513301
0.00151404
1.58486e-08
0.00495399
0.00136499
-1.41959e-08
0.00479369
0.00122017
4.00787e-08
0.00466194
0.000977436
-2.77323e-08
0.00456022
0.000773266
6.56979e-08
0.00450214
0.000348677
-7.17239e-08
0.0044334
0.000193784
4.36554e-08
-0.000384239
-1.21398e-07
0.00536205
-0.000179114
1.46557e-08
0.0054455
-0.000528779
-1.08363e-08
0.0055863
-0.000871624
-5.14453e-08
0.00577819
-0.00118152
-2.65238e-08
0.00602116
-0.00145889
-5.2694e-08
0.00630422
-0.00167743
-3.3323e-08
0.00661521
-0.00182464
-1.14089e-08
0.00693534
-0.00188546
3.72952e-08
0.00724047
-0.00184877
1.19423e-07
0.00750957
-0.00172385
1.72557e-07
0.00772958
-0.00153615
1.64346e-07
0.00789883
-0.0013203
8.12124e-08
0.00802445
-0.00110658
7.87885e-09
0.00811535
-0.000910106
-4.67789e-08
0.00817778
-0.000733362
-4.22018e-08
0.00821581
-0.000575808
-1.15799e-08
0.00823358
-0.000439563
2.03253e-09
0.00823654
-0.000328866
6.59408e-10
0.00823174
-0.000247833
-1.1916e-08
0.00822676
-0.000197081
-2.13884e-08
0.00822852
-0.000172803
-2.75215e-08
0.00824248
-0.000167315
-3.34326e-08
0.00827158
-0.000169062
-3.80645e-08
0.00831539
-0.000163631
-3.81505e-08
0.00836964
-0.000135509
-3.24808e-08
0.0084263
-7.04391e-05
-2.81353e-08
0.00847436
4.26133e-05
-3.11905e-08
0.00850058
0.00020968
-3.27494e-08
0.00849205
0.000427703
-2.13543e-08
0.00843717
0.00068746
-7.65436e-09
0.00832793
0.000972353
2.30844e-09
0.00816146
0.00126203
7.05485e-09
0.00794139
0.00153291
9.57652e-09
0.00767709
0.00176657
5.44169e-09
0.00738192
0.00194718
5.08637e-09
0.00707028
0.00207149
-7.5791e-10
0.00675523
0.00213712
8.25969e-10
0.00644701
0.0021543
-5.91555e-09
0.00615259
0.00212655
1.12575e-09
0.00587594
0.00206581
-5.97574e-09
0.00561895
0.00197769
5.2518e-09
0.0053824
0.00186113
-5.53801e-09
0.00516672
0.00172971
1.3464e-08
0.00496896
0.00156276
-9.55226e-09
0.00479348
0.00139561
4.00259e-08
0.00464855
0.00112239
-2.2454e-08
0.00453438
0.000887367
6.08654e-08
0.00445055
0.00043259
-7.80051e-08
0.00433832
0.00030597
4.11744e-08
-0.000331367
-1.38759e-07
0.0053667
-0.000212501
2.04026e-08
0.0054634
-0.000625471
-1.15115e-09
0.00562901
-0.00103718
-6.12006e-08
0.00585521
-0.0014077
-2.57349e-08
0.00614852
-0.00175211
-8.3854e-08
0.00649281
-0.00202168
-3.84283e-08
0.00687699
-0.0022088
-1.97324e-08
0.0072739
-0.00228243
6.5351e-08
0.00764759
-0.00222264
1.75601e-07
0.00796848
-0.00204496
2.15833e-07
0.00821836
-0.0017862
1.77851e-07
0.00839823
-0.00150023
5.44507e-08
0.00852219
-0.0012305
-4.87379e-08
0.00860397
-0.000991773
-1.14537e-07
0.0086517
-0.000781001
-8.96844e-08
0.00866965
-0.000593733
-3.07783e-08
0.00866274
-0.000432645
-7.28516e-09
0.00863769
-0.000303812
-3.27005e-09
0.00860369
-0.000213817
-1.30925e-08
0.00857058
-0.000163955
-1.69442e-08
0.00854765
-0.000149855
-1.99672e-08
0.00854253
-0.000162169
-2.73423e-08
0.0085599
-0.000186388
-3.686e-08
0.00860055
-0.000204242
-4.43697e-08
0.00866084
-0.000195754
-4.21395e-08
0.00873276
-0.000142335
-2.63105e-08
0.008805
-2.96185e-05
-7.51413e-09
0.0088596
0.000155133
-5.56001e-08
0.00888109
0.000406298
-8.52415e-08
0.00885289
0.000715743
-8.40326e-08
0.00876142
0.0010639
-6.61584e-08
0.00859838
0.00142511
-4.6655e-08
0.00836399
0.00176733
-2.86639e-08
0.00806808
0.0020625
-2.11342e-08
0.00772834
0.00228693
-1.49999e-08
0.00736545
0.0024344
-1.72238e-08
0.00699825
0.00250433
-1.06015e-08
0.00664125
0.0025113
-1.2293e-08
0.00630373
0.00246407
-3.56057e-09
0.0059902
0.00237934
-6.79643e-09
0.0057025
0.00226538
3.3566e-09
0.00544036
0.00212328
-4.32233e-09
0.00520275
0.0019673
1.15578e-08
0.00498478
0.00178073
-4.97412e-09
0.00479364
0.00158671
3.95368e-08
0.00463405
0.00128201
-2.06423e-08
0.00450134
0.00102002
5.31684e-08
0.00438101
0.000553002
-8.47835e-08
0.00422565
0.000461289
4.92037e-08
-0.000262511
-1.58985e-07
0.00537147
-0.000250662
3.12359e-08
0.00548308
-0.000737091
9.39929e-09
0.00567625
-0.00123029
-6.60715e-08
0.0059424
-0.00167381
-2.92148e-08
0.00629808
-0.00210765
-1.38379e-07
0.00671835
-0.0024419
-4.82957e-08
0.00719903
-0.00268944
-4.24098e-08
0.00770011
-0.00278362
1.20844e-07
0.00816291
-0.00268574
2.91518e-07
0.00853997
-0.00242228
2.55158e-07
0.00880626
-0.00205257
8.15551e-08
0.00897368
-0.00166756
-9.31076e-08
0.0090697
-0.00132627
-2.49378e-07
0.00911561
-0.00103744
-2.47813e-07
0.00912182
-0.000787069
-1.43964e-07
0.00909325
-0.000565116
-4.68455e-08
0.00903536
-0.00037474
-1.1514e-08
0.00895667
-0.000225119
-3.40388e-09
0.00886843
-0.000125577
-5.25699e-09
0.00878254
-7.80606e-05
-2.38722e-09
0.00871098
-7.82927e-05
-1.39393e-09
0.00866412
-0.0001153
-3.27759e-09
0.00864921
-0.000171474
-6.68075e-09
0.00866975
-0.000224769
-1.4612e-08
0.00872416
-0.000250145
-2.14024e-08
0.00880643
-0.000224585
-2.01256e-08
0.00890617
-0.000129346
-1.06318e-08
0.0090065
5.48026e-05
5.76449e-09
0.00908526
0.000327594
-5.67686e-08
0.00911987
0.000681238
-1.09922e-07
0.00908823
0.00109568
-1.36275e-07
0.00897219
0.00154127
-1.36398e-07
0.00876224
0.0019774
-1.11928e-07
0.00846281
0.00236201
-8.45331e-08
0.00809388
0.00265592
-5.9685e-08
0.00768464
0.00284369
-4.75058e-08
0.00726379
0.00292521
-3.16204e-08
0.00685371
0.00292141
-2.47252e-08
0.00646822
0.00284957
-1.17868e-08
0.00611353
0.00273404
-9.57723e-09
0.00579187
0.00258704
7.01154e-10
0.00550182
0.00241333
-4.03986e-09
0.00524029
0.00222882
1.01696e-08
0.00500145
0.00201958
-1.11374e-09
0.0047944
0.00179372
3.7396e-08
0.00461773
0.00145871
-2.20766e-08
0.00445943
0.00117828
4.29128e-08
0.00429728
0.000715233
-8.93508e-08
0.00410699
0.000651525
5.87161e-08
-0.000186488
-1.73498e-07
0.00537583
-0.000293207
5.16938e-08
0.00550376
-0.000865044
2.47205e-08
0.00572469
-0.00145117
-4.99908e-08
0.00603764
-0.00198672
-5.05346e-08
0.00646776
-0.00253755
-2.25854e-07
0.00698171
-0.00295572
-1.35397e-07
0.0075924
-0.0033
-1.309e-07
0.0082313
-0.00342264
1.08448e-07
0.00880379
-0.00325866
4.35154e-07
0.00921446
-0.00283334
3.92717e-07
0.00943828
-0.00227646
6.40498e-08
0.00952571
-0.00175462
-3.69071e-07
0.00953066
-0.00133065
-5.6721e-07
0.00948304
-0.000989395
-4.209e-07
0.00939668
-0.000700574
-1.40544e-07
0.00927765
-0.000446069
-1.52659e-08
0.00913149
-0.00022862
4.68253e-08
0.00896537
-5.90335e-05
3.31238e-08
0.00879263
4.71381e-05
2.04856e-08
0.00862507
8.94784e-05
2.35898e-08
0.0084764
7.03606e-05
1.60695e-08
0.00835961
1.4961e-06
-3.52415e-09
0.00828655
-9.84276e-05
1.27382e-08
0.00826682
-0.000205087
4.31659e-08
0.00830383
-0.000287212
5.75419e-08
0.00839606
-0.000316864
4.84836e-08
0.0085338
-0.000267117
3.68331e-08
0.00870423
-0.000115696
6.03334e-08
0.00887882
0.000152959
5.33877e-08
0.00902786
0.000532188
1.26045e-09
0.00911909
0.00100451
-6.0804e-08
0.0091218
0.00153869
-1.17631e-07
0.00901041
0.00208893
-1.50618e-07
0.00877337
0.00259921
-1.55268e-07
0.00842347
0.00300595
-1.32931e-07
0.00799599
0.00327127
-1.05022e-07
0.00753387
0.00338741
-7.05939e-08
0.00707388
0.00338144
-4.67678e-08
0.00663951
0.00328397
-2.42598e-08
0.00624163
0.00313194
-1.41368e-08
0.00588418
0.00294449
-1.88309e-09
0.0055648
0.00273272
-4.33777e-09
0.00527821
0.00251539
9.4113e-09
0.00501881
0.00227898
2.42233e-09
0.00479561
0.00201688
3.28751e-08
0.00459879
0.00165555
-2.6382e-08
0.00440962
0.00136742
3.11508e-08
0.00420708
0.000917866
-8.71373e-08
0.00399316
0.000865375
6.44674e-08
-0.00010876
-1.74281e-07
0.00537943
-0.000339393
8.80272e-08
0.0055226
-0.00100827
6.40732e-08
0.00576729
-0.00169587
1.36013e-08
0.00613493
-0.00235427
-9.06158e-08
0.00664418
-0.00304648
-3.12813e-07
0.00727632
-0.0035875
-3.54255e-07
0.00807924
-0.00410248
-4.29785e-07
0.00886754
-0.00421094
-8.82188e-09
0.00952211
-0.00391356
3.30299e-07
0.00985211
-0.00316391
5.69834e-07
0.00988042
-0.00230507
3.05017e-07
0.00974529
-0.00161935
-1.36185e-07
0.00954027
-0.00112504
-5.91996e-07
0.0093057
-0.000754382
-4.41305e-07
0.00906088
-0.000455692
-5.95988e-08
0.00880659
-0.000191947
1.61235e-07
0.00854725
3.05474e-05
1.82392e-07
0.00827717
0.000210978
6.16461e-08
0.00800771
0.000316562
3.418e-08
0.00774924
0.000347901
4.98182e-08
0.00751587
0.000303693
3.38549e-08
0.00732397
0.000193403
2.53389e-10
0.00718701
3.85781e-05
-4.80084e-08
0.00713263
-0.000150713
2.79117e-09
0.00716963
-0.000324272
6.66605e-08
0.00730162
-0.000448956
1.01228e-07
0.00751839
-0.000483999
1.11173e-07
0.00779726
-0.000394663
9.6229e-08
0.00810997
-0.000159879
1.25244e-07
0.00841879
0.000223232
1.39533e-07
0.00868617
0.000737022
1.08195e-07
0.00887371
0.00135111
4.31244e-08
0.00894261
0.00202006
-3.46545e-08
0.0088592
0.00268274
-1.09345e-07
0.00861374
0.00325156
-1.52346e-07
0.00823304
0.00365212
-1.56817e-07
0.00776991
0.00385067
-1.23168e-07
0.00728038
0.00387106
-8.26747e-08
0.0068055
0.00375889
-4.47815e-08
0.00636725
0.00357021
-2.22582e-08
0.00597485
0.0033369
-6.12948e-09
0.00562626
0.00308132
-4.99406e-09
0.00531496
0.00282668
9.18605e-09
0.0050363
0.00255764
4.90704e-09
0.00479673
0.00225641
2.59183e-08
0.00457724
0.00187508
-3.27558e-08
0.00435558
0.00158906
2.00866e-08
0.00411879
0.00115473
-7.80764e-08
0.00389145
0.00109265
6.45433e-08
-3.07623e-05
-1.56873e-07
0.0053817
-0.000387904
1.41898e-07
0.00553209
-0.00115879
1.3885e-07
0.00579317
-0.00195709
1.35241e-07
0.0062127
-0.0027737
-9.71482e-08
0.00679345
-0.00362697
-2.64142e-07
0.00758727
-0.00438066
-6.6412e-07
0.00866828
-0.00518274
-7.54163e-07
0.00953495
-0.00507752
-9.67109e-08
0.0100172
-0.00118628
-1.5888e-07
-0.00101168
-0.00118476
-0.00101293
0.00995187
-0.000858395
1.80363e-07
-0.000691172
-0.000857384
-0.000691805
0.00949599
-0.000514555
9.083e-07
-0.000410649
-0.000514045
-0.000410845
0.00891064
-0.000273128
3.317e-07
-0.000243777
-0.000273522
-0.000243912
0.00833521
-0.000549481
-1.18705e-07
0.00784458
-0.000263539
-2.17933e-07
0.00744441
-5.56552e-05
1.40538e-07
0.00710026
0.000151908
2.89338e-07
0.0067813
0.000349322
1.85373e-07
0.00647891
0.000513312
6.23738e-08
0.00618015
0.000615294
2.69306e-08
0.00589286
0.000635187
5.18737e-09
0.0056353
0.000561278
-3.24796e-08
0.00543449
0.000394273
-5.86849e-08
0.00532233
0.000150781
-4.38504e-08
0.00532113
-0.000149482
-2.54105e-08
0.0054471
-0.000450244
-6.63641e-11
0.00569578
-0.000697673
3.17753e-08
0.00604771
-0.000835986
6.45349e-08
0.00647318
-0.000820229
9.81495e-08
0.0069383
-0.000625144
1.44693e-07
0.00740656
-0.000245224