/*--------------------------------*- C++ -*----------------------------------*\
  =========                 |
  \\      /  F ield         | OpenFOAM: The Open Source CFD Toolbox
   \\    /   O peration     | Website:  https://openfoam.org
    \\  /    A nd           | Version:  8
     \\/     M anipulation  |
\*---------------------------------------------------------------------------*/
FoamFile
{
    version     2.0;
    format      ascii;
    class       surfaceScalarField;
    location    "7.5";
    object      phi;
}
// * * * * * * * * * * * * * * * * * * * * * * * * * * * * * * * * * * * * * //

dimensions      [0 3 -1 0 0 0 0];

internalField   nonuniform List<scalar> 
208
(
-3.32294e-06
3.32294e-06
-7.84487e-06
4.52193e-06
-1.26573e-05
4.81241e-06
-1.77982e-05
5.14091e-06
-2.33861e-05
5.58789e-06
6.31477e-06
-2.97009e-05
-4.85284e-06
8.17578e-06
-1.10253e-05
1.06944e-05
-1.75233e-05
1.13104e-05
-2.42888e-05
1.19064e-05
-3.1238e-05
1.25371e-05
1.21675e-05
-3.70908e-05
-4.22711e-06
1.24029e-05
-1.03174e-05
1.67847e-05
-1.66624e-05
1.76554e-05
-2.36997e-05
1.89437e-05
-3.13256e-05
2.01629e-05
2.02944e-05
-3.94524e-05
-5.11556e-06
1.75185e-05
-1.11774e-05
2.28465e-05
-1.7889e-05
2.4367e-05
-2.47967e-05
2.58514e-05
-3.35439e-05
2.89102e-05
3.00774e-05
-4.33269e-05
-1.74003e-06
1.92585e-05
-7.22318e-06
2.83296e-05
-1.28314e-05
2.99753e-05
-1.99327e-05
3.29527e-05
-2.89056e-05
3.78831e-05
4.13281e-05
-4.01563e-05
-6.31781e-06
2.55763e-05
-1.02716e-05
3.22835e-05
-1.5015e-05
3.47186e-05
-1.95063e-05
3.7444e-05
-2.5857e-05
4.42339e-05
4.90887e-05
-3.36176e-05
3.1348e-06
2.24415e-05
-3.25695e-06
3.86752e-05
-6.80944e-06
3.82711e-05
-1.02321e-05
4.08667e-05
-1.21188e-05
4.61205e-05
5.31364e-05
-1.61665e-05
4.45036e-06
1.79911e-05
7.58355e-06
3.5542e-05
7.61786e-06
3.82368e-05
3.86966e-06
4.46149e-05
3.13468e-06
4.68555e-05
5.28883e-05
3.38281e-06
-5.04889e-05
6.848e-05
-5.23102e-05
3.73634e-05
-4.85005e-05
3.44271e-05
-3.5651e-05
3.17654e-05
-1.6074e-05
2.72785e-05
2.49456e-05
1.18687e-05
6.848e-05
0.000105843
0.00014027
0.000172036
0.000199314
0.00022426
-2.73475e-05
1.36072e-05
-1.59605e-05
-2.37884e-05
1.10878e-06
-4.66788e-06
-1.86342e-05
-1.01039e-05
4.9497e-06
-3.43129e-05
1.56787e-05
-3.66613e-05
1.31777e-05
-3.59977e-05
4.45215e-07
-3.41334e-05
-1.19682e-05
-6.84463e-05
-4.79733e-05
2.16986e-05
-5.59886e-05
8.46046e-06
-6.00887e-05
-7.86804e-06
-0.000128535
-5.68684e-05
3.52401e-05
-6.83821e-05
1.99741e-05
-6.44537e-05
-1.17963e-05
-0.000192989
-5.42395e-05
4.93232e-05
-6.42617e-05
2.99963e-05
-4.14955e-05
-3.45625e-05
-0.000234484
-4.03465e-05
5.60521e-05
-4.89716e-05
3.86214e-05
-2.35373e-05
-5.99968e-05
-0.000258022
-2.43007e-05
6.41864e-05
-3.5662e-05
4.99827e-05
-1.98792e-05
-7.57797e-05
-0.000277901
7.81365e-06
5.97555e-05
6.54271e-06
5.12537e-05
1.72305e-05
-8.64675e-05
-0.00026067
5.2368e-05
1.92563e-05
8.81097e-05
1.55119e-05
7.96679e-05
-7.80257e-05
-0.000181002
0.000243516
0.000259028
0.000181002
-1.35723e-06
1.35723e-06
-1.90567e-06
5.48441e-07
-1.36547e-06
-5.40199e-07
-1.36547e-06
-2.13174e-06
3.48897e-06
-2.80513e-06
1.22183e-06
-2.02639e-06
-1.31894e-06
-3.39186e-06
-4.56252e-06
8.05149e-06
-6.12121e-06
2.78053e-06
-4.54558e-06
-2.89458e-06
-7.93744e-06
-7.90902e-06
-9.79637e-06
-7.74125e-06
)
;

boundaryField
{
    movingWall
    {
        type            calculated;
        value           uniform 0;
    }
    fixedWalls
    {
        type            calculated;
        value           uniform 0;
    }
    frontAndBack
    {
        type            empty;
        value           nonuniform List<scalar> 0();
    }
}


// ************************************************************************* //
