/*--------------------------------*- C++ -*----------------------------------*\
  =========                 |
  \\      /  F ield         | OpenFOAM: The Open Source CFD Toolbox
   \\    /   O peration     | Website:  https://openfoam.org
    \\  /    A nd           | Version:  8
     \\/     M anipulation  |
\*---------------------------------------------------------------------------*/
FoamFile
{
    version     2.0;
    format      ascii;
    class       volScalarField;
    location    "0.47";
    object      p;
}
// * * * * * * * * * * * * * * * * * * * * * * * * * * * * * * * * * * * * * //

dimensions      [0 2 -2 0 0 0 0];

internalField   nonuniform List<scalar> 
400
(
4.30771e-06
-0.00582252
-0.0129602
-0.0184124
-0.02043
-0.0182363
-0.0117719
-0.00148178
0.0118392
0.0271509
0.0432461
0.0588246
0.0725801
0.0833099
0.0900542
0.0922685
0.0900275
0.0842457
0.0768826
0.0710691
0.00578326
-0.000215784
-0.0058016
-0.00954026
-0.0105967
-0.00843061
-0.00296796
0.00547598
0.0163046
0.0287134
0.0417514
0.0543876
0.0655881
0.0744115
0.0801219
0.0823174
0.081079
0.0770567
0.0712761
0.0653199
0.0133374
0.0050359
-0.000993133
-0.00442098
-0.00527084
-0.00326193
0.00160424
0.00902935
0.0185037
0.0293509
0.0407671
0.0518713
0.0617702
0.0696381
0.0748087
0.0768798
0.0758434
0.0720878
0.0658075
0.0575376
0.0201415
0.00869803
0.00122792
-0.00266651
-0.00372014
-0.00188338
0.00273313
0.00978632
0.018782
0.0290966
0.0399936
0.0506557
0.0602347
0.0679177
0.073005
0.0750033
0.0737677
0.069458
0.061605
0.0501047
0.024504
0.00977513
0.000591792
-0.00398493
-0.00530029
-0.00350543
0.00117659
0.00833634
0.0174637
0.0279507
0.0390866
0.0500716
0.0600506
0.0681669
0.0736282
0.0757996
0.0743709
0.0692917
0.0595276
0.0445393
0.0251798
0.00715205
-0.00379998
-0.00905518
-0.0105102
-0.00849803
-0.0033549
0.0044313
0.0143152
0.0256808
0.0378155
0.049905
0.0610498
0.0703049
0.0767365
0.0795188
0.0781409
0.0723355
0.0605413
0.0418922
0.0210954
-0.000260321
-0.0129324
-0.0187072
-0.0200277
-0.0174119
-0.0113163
-0.00231769
0.00899241
0.0219781
0.0359115
0.0499462
0.0631139
0.0743471
0.0825238
0.0865714
0.0857227
0.0794492
0.0656225
0.0430739
0.0111448
-0.0136161
-0.0278729
-0.033852
-0.0346013
-0.0308553
-0.0232107
-0.012343
0.00110701
0.016486
0.0330546
0.0499356
0.0660853
0.0802918
0.0912027
0.097432
0.0978724
0.0916382
0.0758985
0.0491188
-0.00596507
-0.0342643
-0.0498678
-0.0555463
-0.0550878
-0.0495122
-0.0395912
-0.026111
-0.00975479
0.00882532
0.0289033
0.0495957
0.0697997
0.0881566
0.10305
0.112703
0.115553
0.110194
0.0928365
0.0614138
-0.0318548
-0.0638738
-0.0804146
-0.0850048
-0.0824176
-0.0740758
-0.0609784
-0.0440341
-0.023949
-0.00133442
0.0231481
0.0486635
0.074098
0.0979746
0.118398
0.133128
0.139991
0.13682
0.118443
0.0819361
-0.0686648
-0.104601
-0.121342
-0.123588
-0.117513
-0.105124
-0.0877156
-0.0663228
-0.0416344
-0.014153
0.0156082
0.0469559
0.0788584
0.109796
0.137626
0.159588
0.172729
0.17378
0.155523
0.113573
-0.119399
-0.159354
-0.174912
-0.172754
-0.161145
-0.142926
-0.119756
-0.0927741
-0.0625745
-0.0294448
0.00637594
0.0444763
0.0840579
0.123706
0.161139
0.193089
0.215671
0.224079
0.208053
0.160635
-0.188625
-0.232239
-0.243936
-0.233945
-0.213691
-0.187151
-0.156369
-0.122498
-0.0858947
-0.046469
-0.00401136
0.0415419
0.0898451
0.139832
0.189322
0.234692
0.271077
0.291667
0.281745
0.229778
-0.283971
-0.329301
-0.331828
-0.308277
-0.274705
-0.236437
-0.195761
-0.153607
-0.109837
-0.0637416
-0.0144344
0.0388668
0.0965576
0.15828
0.222377
0.285291
0.3414
0.381578
0.384917
0.331837
-0.419315
-0.459667
-0.442347
-0.395788
-0.342125
-0.287736
-0.234612
-0.182926
-0.131605
-0.078981
-0.02321
0.0374792
0.104557
0.178841
0.259865
0.344974
0.42862
0.499703
0.529678
0.485394
-0.620527
-0.63674
-0.578673
-0.494189
-0.411237
-0.335654
-0.267776
-0.205973
-0.147532
-0.0893786
-0.0284216
0.0383527
0.113811
0.200476
0.299979
0.412029
0.533033
0.651779
0.732775
0.722399
-0.935919
-0.878511
-0.741737
-0.597944
-0.474389
-0.372655
-0.288864
-0.217758
-0.153949
-0.0924593
-0.0287126
0.0417004
0.123268
0.220723
0.33893
0.482159
0.652001
0.841346
1.01527
1.09751
-1.47642
-1.20663
-0.920499
-0.691384
-0.517301
-0.38754
-0.290057
-0.213333
-0.148119
-0.0872108
-0.0245729
0.0454623
0.128942
0.233076
0.367108
0.542683
0.771297
1.05932
1.40329
1.73015
-2.53964
-1.63054
-1.04443
-0.710955
-0.495746
-0.352089
-0.254526
-0.183579
-0.126165
-0.0735905
-0.0192643
0.0427916
0.119217
0.218787
0.354817
0.547988
0.826397
1.23659
1.91168
2.9242
-4.36666
-2.04463
-0.973538
-0.563177
-0.357842
-0.240143
-0.170115
-0.123779
-0.0874769
-0.0535057
-0.0166497
0.0276655
0.0846123
0.161734
0.272416
0.442104
0.718223
1.22571
2.41104
4.84854
)
;

boundaryField
{
    movingWall
    {
        type            zeroGradient;
    }
    fixedWalls
    {
        type            zeroGradient;
    }
    frontAndBack
    {
        type            empty;
    }
}


// ************************************************************************* //
