/*--------------------------------*- C++ -*----------------------------------*\
  =========                 |
  \\      /  F ield         | OpenFOAM: The Open Source CFD Toolbox
   \\    /   O peration     | Website:  https://openfoam.org
    \\  /    A nd           | Version:  8
     \\/     M anipulation  |
\*---------------------------------------------------------------------------*/
FoamFile
{
    version     2.0;
    format      ascii;
    class       volVectorField;
    location    "0.47";
    object      U;
}
// * * * * * * * * * * * * * * * * * * * * * * * * * * * * * * * * * * * * * //

dimensions      [0 1 -1 0 0 0 0];

internalField   nonuniform List<vector> 
400
(
(0.000253403 -0.000250455 0)
(0.000141204 0.000111423 0)
(-0.00117703 0.000564619 0)
(-0.00348126 0.000885011 0)
(-0.00637776 0.00104574 0)
(-0.00946989 0.00106178 0)
(-0.0124035 0.00095788 0)
(-0.0148856 0.000760466 0)
(-0.0166903 0.000494665 0)
(-0.0176591 0.000184569 0)
(-0.017703 -0.000145276 0)
(-0.0168059 -0.00046839 0)
(-0.0150308 -0.000755451 0)
(-0.0125257 -0.000974309 0)
(-0.00952682 -0.00109124 0)
(-0.00635525 -0.00107405 0)
(-0.00340077 -0.000898155 0)
(-0.00108646 -0.000556407 0)
(0.000196444 -9.03651e-05 0)
(0.000267875 0.000262398 0)
(-7.74735e-05 -0.000169395 0)
(-0.00161165 0.00164489 0)
(-0.00569322 0.00361748 0)
(-0.0117195 0.00503508 0)
(-0.0188934 0.00574353 0)
(-0.0264023 0.00576051 0)
(-0.0334712 0.00517195 0)
(-0.0394292 0.00409274 0)
(-0.0437467 0.00264778 0)
(-0.04605 0.000966976 0)
(-0.0461323 -0.000813282 0)
(-0.0439641 -0.00254724 0)
(-0.0397036 -0.0040789 0)
(-0.0337047 -0.00524543 0)
(-0.0265149 -0.00588691 0)
(-0.0188556 -0.00586519 0)
(-0.0115673 -0.00509503 0)
(-0.00551358 -0.0035896 0)
(-0.00149316 -0.0015592 0)
(-4.25783e-05 0.000227479 0)
(-0.000528641 0.00109167 0)
(-0.00371162 0.00573661 0)
(-0.0105896 0.0102251 0)
(-0.019993 0.0134085 0)
(-0.0307668 0.0149472 0)
(-0.041825 0.0148397 0)
(-0.0521233 0.0132565 0)
(-0.0607483 0.0104568 0)
(-0.066974 0.00674238 0)
(-0.0702874 0.00243898 0)
(-0.0704054 -0.00210672 0)
(-0.0672888 -0.00652592 0)
(-0.0611563 -0.0104299 0)
(-0.0524918 -0.0134219 0)
(-0.0420397 -0.0151244 0)
(-0.0307758 -0.0152265 0)
(-0.0198302 -0.0135568 0)
(-0.0103642 -0.0101795 0)
(-0.00354872 -0.00555135 0)
(-0.000476871 -0.000948865 0)
(-0.000928284 0.00348004 0)
(-0.00569186 0.0122214 0)
(-0.0153028 0.0199229 0)
(-0.0279187 0.0251993 0)
(-0.0419882 0.0275986 0)
(-0.0561827 0.0271391 0)
(-0.0692566 0.0241104 0)
(-0.080131 0.018955 0)
(-0.087954 0.0121962 0)
(-0.0921249 0.00440525 0)
(-0.0923094 -0.00380832 0)
(-0.0884558 -0.0117974 0)
(-0.0808101 -0.0188834 0)
(-0.0699272 -0.0243778 0)
(-0.0566726 -0.0276293 0)
(-0.0421973 -0.0281034 0)
(-0.0278582 -0.0254991 0)
(-0.0150945 -0.0198927 0)
(-0.00550535 -0.0119283 0)
(-0.000861649 -0.00322501 0)
(-0.00127901 0.0068782 0)
(-0.00753649 0.0209549 0)
(-0.019806 0.0325122 0)
(-0.035537 0.0401055 0)
(-0.0527466 0.0432927 0)
(-0.0698628 0.0421952 0)
(-0.0854686 0.0372796 0)
(-0.0983666 0.0292146 0)
(-0.107626 0.0187782 0)
(-0.112595 0.00681395 0)
(-0.112904 -0.0057809 0)
(-0.108481 -0.0180559 0)
(-0.0995679 -0.0290132 0)
(-0.0867441 -0.0376349 0)
(-0.0709396 -0.0429474 0)
(-0.0534331 -0.0441312 0)
(-0.0357865 -0.0406808 0)
(-0.0197361 -0.0325941 0)
(-0.00737096 -0.0205915 0)
(-0.00120374 -0.00649844 0)
(-0.00160761 0.0112162 0)
(-0.00931848 0.0318762 0)
(-0.0242104 0.0479542 0)
(-0.0430047 0.0580748 0)
(-0.0632601 0.0619401 0)
(-0.0831569 0.059884 0)
(-0.101129 0.0526308 0)
(-0.115898 0.0411277 0)
(-0.126494 0.0264381 0)
(-0.132244 0.00969312 0)
(-0.132756 -0.00791698 0)
(-0.127929 -0.0251336 0)
(-0.117971 -0.0406271 0)
(-0.103438 -0.0530219 0)
(-0.0852724 -0.060969 0)
(-0.0648381 -0.0632828 0)
(-0.0438871 -0.0591444 0)
(-0.0244786 -0.0483463 0)
(-0.00925465 -0.0315588 0)
(-0.00153781 -0.010729 0)
(-0.00194012 0.0164778 0)
(-0.0111216 0.044976 0)
(-0.0286513 0.0662359 0)
(-0.0504814 0.0790625 0)
(-0.0736872 0.0834495 0)
(-0.0962067 0.0800772 0)
(-0.116355 0.070027 0)
(-0.132819 0.0545868 0)
(-0.144636 0.0351328 0)
(-0.151146 0.0130849 0)
(-0.151954 -0.0100872 0)
(-0.14692 -0.0328342 0)
(-0.136185 -0.053502 0)
(-0.120226 -0.0703396 0)
(-0.0999352 -0.0815683 0)
(-0.0767033 -0.0855357 0)
(-0.0524414 -0.0809663 0)
(-0.0295455 -0.0672791 0)
(-0.0112839 -0.0449409 0)
(-0.00190012 -0.0159521 0)
(-0.00230008 0.0226957 0)
(-0.0130253 0.0603027 0)
(-0.0332513 0.0873662 0)
(-0.0580806 0.103 0)
(-0.0840759 0.107668 0)
(-0.108955 0.102564 0)
(-0.13097 0.0892467 0)
(-0.148837 0.0694128 0)
(-0.161669 0.0447728 0)
(-0.16887 0.01702 0)
(-0.170065 -0.0121343 0)
(-0.165074 -0.0408948 0)
(-0.153932 -0.0673167 0)
(-0.136972 -0.089276 0)
(-0.114944 -0.104515 0)
(-0.089177 -0.1108 0)
(-0.0616714 -0.106215 0)
(-0.0351487 -0.0895816 0)
(-0.013586 -0.0609509 0)
(-0.00232636 -0.0222781 0)
(-0.00271166 0.0299477 0)
(-0.0151081 0.0779582 0)
(-0.0381149 0.111358 0)
(-0.0658486 0.129752 0)
(-0.0943272 0.13432 0)
(-0.1211 0.126976 0)
(-0.144444 0.109904 0)
(-0.163214 0.0852835 0)
(-0.176688 0.0551681 0)
(-0.184407 0.0214871 0)
(-0.186058 -0.0138754 0)
(-0.181423 -0.0489581 0)
(-0.170396 -0.0815956 0)
(-0.153081 -0.109326 0)
(-0.129971 -0.129384 0)
(-0.102186 -0.138831 0)
(-0.0716897 -0.134889 0)
(-0.0414671 -0.115471 0)
(-0.0162881 -0.0798967 0)
(-0.0028547 -0.0298901 0)
(-0.00320765 0.0383601 0)
(-0.0174662 0.0980907 0)
(-0.043341 0.138191 0)
(-0.0737565 0.159048 0)
(-0.10416 0.162903 0)
(-0.132032 0.152675 0)
(-0.155825 0.131343 0)
(-0.174679 0.101642 0)
(-0.188168 0.0659586 0)
(-0.196068 0.0263897 0)
(-0.198186 -0.0151133 0)
(-0.194284 -0.0565467 0)
(-0.184082 -0.095644 0)
(-0.167366 -0.129691 0)
(-0.144215 -0.155426 0)
(-0.115339 -0.1691 0)
(-0.0824458 -0.166805 0)
(-0.0486361 -0.145126 0)
(-0.0195287 -0.102161 0)
(-0.00353357 -0.0390477 0)
(-0.00384394 0.0481291 0)
(-0.0202461 0.120895 0)
(-0.0490464 0.167754 0)
(-0.0816861 0.190368 0)
(-0.113053 0.192559 0)
(-0.140746 0.178617 0)
(-0.163621 0.152514 0)
(-0.181309 0.117594 0)
(-0.193846 0.0765359 0)
(-0.20136 0.0314946 0)
(-0.203857 -0.0156593 0)
(-0.201109 -0.0630516 0)
(-0.192648 -0.108493 0)
(-0.177857 -0.149173 0)
(-0.156224 -0.181418 0)
(-0.127779 -0.200609 0)
(-0.0936441 -0.201427 0)
(-0.056733 -0.178575 0)
(-0.0234798 -0.128174 0)
(-0.00443553 -0.0501048 0)
(-0.00472534 0.0595715 0)
(-0.0236945 0.146618 0)
(-0.0553827 0.199758 0)
(-0.089376 0.222793 0)
(-0.120121 0.221894 0)
(-0.145675 0.20319 0)
(-0.16563 0.171842 0)
(-0.18037 0.131812 0)
(-0.19058 0.0859709 0)
(-0.196862 0.0363767 0)
(-0.199501 -0.015371 0)
(-0.198335 -0.0677441 0)
(-0.192717 -0.118868 0)
(-0.181574 -0.16608 0)
(-0.163645 -0.20549 0)
(-0.137966 -0.231663 0)
(-0.104596 -0.237627 0)
(-0.0657334 -0.215526 0)
(-0.0283777 -0.158369 0)
(-0.00568207 -0.0635525 0)
(-0.00605155 0.0732286 0)
(-0.0282257 0.175564 0)
(-0.0625083 0.233572 0)
(-0.0962563 0.254748 0)
(-0.123856 0.248733 0)
(-0.144397 0.224028 0)
(-0.158669 0.187109 0)
(-0.168106 0.142463 0)
(-0.1742 0.0929698 0)
(-0.178117 0.0403794 0)
(-0.180483 -0.0141988 0)
(-0.181264 -0.0698221 0)
(-0.179694 -0.125212 0)
(-0.174269 -0.178182 0)
(-0.162894 -0.224975 0)
(-0.143316 -0.25959 0)
(-0.113937 -0.273331 0)
(-0.0753929 -0.255068 0)
(-0.0345562 -0.193091 0)
(-0.00748627 -0.0801045 0)
(-0.00819203 0.0900464 0)
(-0.0344825 0.208021 0)
(-0.0704117 0.267884 0)
(-0.101022 0.283608 0)
(-0.121573 0.269813 0)
(-0.133106 0.237842 0)
(-0.138161 0.195406 0)
(-0.13946 0.147234 0)
(-0.139365 0.09591 0)
(-0.139592 0.0426199 0)
(-0.141107 -0.0122332 0)
(-0.144053 -0.0685079 0)
(-0.147667 -0.125795 0)
(-0.150168 -0.182771 0)
(-0.148719 -0.236326 0)
(-0.139642 -0.280448 0)
(-0.119094 -0.305027 0)
(-0.0849356 -0.29516 0)
(-0.0424403 -0.232378 0)
(-0.010216 -0.100837 0)
(-0.0117675 0.111635 0)
(-0.0432595 0.243962 0)
(-0.0782966 0.300035 0)
(-0.100627 0.305093 0)
(-0.108349 0.280461 0)
(-0.105728 0.240384 0)
(-0.0975262 0.193282 0)
(-0.0877672 0.14355 0)
(-0.079497 0.0930365 0)
(-0.0747812 0.0420952 0)
(-0.0747989 -0.00972899 0)
(-0.0798869 -0.0632118 0)
(-0.0894594 -0.118991 0)
(-0.101785 -0.176958 0)
(-0.113684 -0.235286 0)
(-0.120303 -0.288883 0)
(-0.115262 -0.327197 0)
(-0.0922659 -0.331795 0)
(-0.0523155 -0.275404 0)
(-0.0144303 -0.127347 0)
(-0.0175493 0.140659 0)
(-0.0547643 0.282146 0)
(-0.0827855 0.324719 0)
(-0.0880791 0.312474 0)
(-0.0751065 0.274457 0)
(-0.0525883 0.226771 0)
(-0.0274551 0.177289 0)
(-0.00451067 0.129136 0)
(0.0131031 0.0829133 0)
(0.0234444 0.0379471 0)
(0.025403 -0.00707366 0)
(0.0185117 -0.053759 0)
(0.0029837 -0.103753 0)
(-0.0199935 -0.158321 0)
(-0.0476831 -0.217503 0)
(-0.0749827 -0.278362 0)
(-0.0935453 -0.331792 0)
(-0.092063 -0.357683 0)
(-0.0632803 -0.319294 0)
(-0.0206335 -0.161974 0)
(-0.0254497 0.181711 0)
(-0.0657744 0.317771 0)
(-0.0733324 0.331363 0)
(-0.0480759 0.295401 0)
(-0.00557646 0.244212 0)
(0.041221 0.192381 0)
(0.0846561 0.145048 0)
(0.12054 0.102972 0)
(0.146706 0.0651382 0)
(0.162051 0.0298915 0)
(0.165945 -0.0046717 0)
(0.15794 -0.0406288 0)
(0.137735 -0.0802471 0)
(0.105443 -0.125919 0)
(0.0622646 -0.179727 0)
(0.0118075 -0.242021 0)
(-0.0378287 -0.307878 0)
(-0.0716788 -0.360143 0)
(-0.0700553 -0.356609 0)
(-0.0279122 -0.208375 0)
(-0.029649 0.239176 0)
(-0.0608412 0.335768 0)
(-0.021942 0.300503 0)
(0.0505426 0.240128 0)
(0.127574 0.182949 0)
(0.197009 0.13539 0)
(0.254339 0.0973994 0)
(0.298253 0.0668514 0)
(0.328827 0.0413556 0)
(0.34647 0.0187786 0)
(0.351379 -0.00279425 0)
(0.343305 -0.0252654 0)
(0.321471 -0.0507881 0)
(0.284645 -0.0820485 0)
(0.231574 -0.122446 0)
(0.162182 -0.175669 0)
(0.0799014 -0.243432 0)
(-0.00318945 -0.319136 0)
(-0.0546694 -0.368612 0)
(-0.0284594 -0.267618 0)
(0.00808309 0.281861 0)
(0.0197831 0.294972 0)
(0.139066 0.210973 0)
(0.26446 0.143477 0)
(0.364368 0.0971861 0)
(0.440365 0.0657776 0)
(0.496744 0.0442376 0)
(0.536875 0.0288861 0)
(0.563448 0.0171989 0)
(0.578307 0.00748479 0)
(0.582382 -0.00149417 0)
(0.575697 -0.0108453 0)
(0.55731 -0.0218472 0)
(0.525136 -0.0363351 0)
(0.475778 -0.0572597 0)
(0.404538 -0.0893842 0)
(0.305177 -0.139741 0)
(0.173417 -0.216386 0)
(0.0411721 -0.311655 0)
(0.0184302 -0.299995 0)
(0.299604 0.146091 0)
(0.396272 0.127503 0)
(0.55742 0.0760895 0)
(0.674487 0.0437233 0)
(0.743889 0.0255721 0)
(0.787153 0.0152422 0)
(0.815486 0.00921236 0)
(0.833956 0.00550943 0)
(0.845386 0.00302719 0)
(0.851372 0.00114934 0)
(0.852667 -0.000499399 0)
(0.849383 -0.00221509 0)
(0.841 -0.00433858 0)
(0.826141 -0.0074241 0)
(0.802078 -0.0125323 0)
(0.763621 -0.0217729 0)
(0.699108 -0.0392829 0)
(0.583952 -0.0726601 0)
(0.415827 -0.127868 0)
(0.308819 -0.149468 0)
)
;

boundaryField
{
    movingWall
    {
        type            fixedValue;
        value           uniform (1 0 0);
    }
    fixedWalls
    {
        type            noSlip;
    }
    frontAndBack
    {
        type            empty;
    }
}


// ************************************************************************* //
