/*--------------------------------*- C++ -*----------------------------------*\
  =========                 |
  \\      /  F ield         | OpenFOAM: The Open Source CFD Toolbox
   \\    /   O peration     | Website:  https://openfoam.org
    \\  /    A nd           | Version:  8
     \\/     M anipulation  |
\*---------------------------------------------------------------------------*/
FoamFile
{
    version     2.0;
    format      ascii;
    class       volScalarField;
    location    "0.055";
    object      p;
}
// * * * * * * * * * * * * * * * * * * * * * * * * * * * * * * * * * * * * * //

dimensions      [0 2 -2 0 0 0 0];

internalField   nonuniform List<scalar> 
400
(
-6.45774e-08
-0.00529707
-0.0116539
-0.0163168
-0.0177259
-0.0152179
-0.00877387
0.00117038
0.0138652
0.0283508
0.0435341
0.0582477
0.0713168
0.0816504
0.0883628
0.0909281
0.0893687
0.0844633
0.077947
0.0726803
0.00514742
-0.000295357
-0.00525312
-0.00839367
-0.00897242
-0.00651698
-0.000980653
0.00732226
0.0178176
0.0297502
0.0422464
0.0543677
0.0651734
0.0738006
0.0795633
0.082071
0.0813655
0.078008
0.0729041
0.0675027
0.0117707
0.00425375
-0.00110974
-0.00398516
-0.00438792
-0.00206926
0.00295504
0.0103872
0.0197282
0.0303304
0.0414424
0.0522519
0.0619376
0.0697366
0.0750253
0.0774145
0.076872
0.0737303
0.0681513
0.0606359
0.0176428
0.00725956
0.000567181
-0.00274645
-0.00332847
-0.00113398
0.00372179
0.0108977
0.0199026
0.0301279
0.0408732
0.0513758
0.0608501
0.0685415
0.0737939
0.0761357
0.0754113
0.0717485
0.0647117
0.0542308
0.0212903
0.00784341
-0.000464891
-0.00442368
-0.0052296
-0.00301982
0.0019829
0.00936925
0.018625
0.0291462
0.0402454
0.051167
0.0611132
0.0692848
0.0749378
0.0774691
0.0765717
0.0721816
0.0633482
0.0496132
0.0216058
0.00498319
-0.00504277
-0.00965588
-0.0105656
-0.00808117
-0.00253927
0.00556667
0.0156798
0.0271783
0.0393621
0.0514527
0.0626036
0.0719285
0.0785481
0.0816801
0.0808305
0.075733
0.0649436
0.0477051
0.0176047
-0.00234949
-0.0141077
-0.019241
-0.0199921
-0.0168527
-0.010286
-0.000883415
0.0107426
0.0239407
0.0379852
0.0520572
0.0652379
0.0765197
0.0848425
0.0891894
0.088824
0.0832311
0.0704173
0.0493344
0.00821804
-0.0152841
-0.0287126
-0.0340844
-0.0342589
-0.0299487
-0.021767
-0.0104175
0.00342644
0.0190849
0.0358095
0.0527415
0.0688822
0.0830812
0.0940545
0.100485
0.101309
0.0956669
0.0808649
0.0554879
-0.00786585
-0.0351879
-0.0501241
-0.0552669
-0.0542518
-0.0480863
-0.0375706
-0.0235356
-0.00671172
0.0122085
0.0324771
0.0532186
0.0733694
0.0916327
0.106466
0.116175
0.119252
0.114329
0.0977433
0.0675356
-0.032354
-0.0638008
-0.0799032
-0.0840662
-0.0809671
-0.0720278
-0.0582891
-0.0407214
-0.0200957
0.00291898
0.0276235
0.0531785
0.0785028
0.10218
0.122395
0.136996
0.143882
0.140929
0.12307
0.0874676
-0.067548
-0.103408
-0.119991
-0.121951
-0.115436
-0.102463
-0.0843793
-0.0622978
-0.0369934
-0.00904759
0.0209704
0.052349
0.0840816
0.114708
0.142169
0.163802
0.176734
0.177741
0.159678
0.118213
-0.11668
-0.157095
-0.172804
-0.17053
-0.158582
-0.139815
-0.115946
-0.08821
-0.0573121
-0.0236436
0.0124784
0.050609
0.0899678
0.1292
0.166113
0.197542
0.219686
0.227779
0.211582
0.164146
-0.184587
-0.229172
-0.241331
-0.231418
-0.210955
-0.183921
-0.152422
-0.117724
-0.0803255
-0.0402699
0.002549
0.048145
0.0961853
0.145668
0.19451
0.239198
0.274952
0.294987
0.284531
0.232
-0.279169
-0.325884
-0.329161
-0.3059
-0.272267
-0.233565
-0.192145
-0.149073
-0.104385
-0.0575437
-0.00779326
0.0455811
0.102984
0.16413
0.227478
0.28959
0.344934
0.384384
0.386877
0.332706
-0.41452
-0.456511
-0.440181
-0.394128
-0.34055
-0.285772
-0.231848
-0.17912
-0.126725
-0.0732121
-0.0168868
0.0439302
0.110715
0.18437
0.264562
0.348784
0.431589
0.50186
0.530781
0.484975
-0.616603
-0.634507
-0.577603
-0.493815
-0.41106
-0.335092
-0.266321
-0.203318
-0.143612
-0.0844169
-0.0227542
0.0442399
0.119436
0.205446
0.304057
0.415153
0.535276
0.6532
0.733073
0.720931
-0.933617
-0.877755
-0.742227
-0.599259
-0.475948
-0.373783
-0.28898
-0.21651
-0.151256
-0.088509
-0.0238863
0.0468914
0.128292
0.225126
0.342417
0.484633
0.653544
0.842079
1.01495
1.09543
-1.47611
-1.20759
-0.922692
-0.694452
-0.520609
-0.390356
-0.291758
-0.213526
-0.146689
-0.0843055
-0.0205609
0.0500679
0.133578
0.237229
0.370403
0.544937
0.772536
1.0597
1.40271
1.72805
-2.54109
-1.63299
-1.04813
-0.715638
-0.50075
-0.356623
-0.25789
-0.185286
-0.126004
-0.0716309
-0.0158199
0.0472248
0.124051
0.223443
0.358811
0.550997
0.828293
1.23743
1.91151
2.92281
-4.36904
-2.04801
-0.978464
-0.569484
-0.364795
-0.246791
-0.175553
-0.127313
-0.0887183
-0.0523957
-0.0134374
0.0324872
0.0904007
0.167804
0.278137
0.446965
0.72188
1.22801
2.41198
4.84827
)
;

boundaryField
{
    movingWall
    {
        type            zeroGradient;
    }
    fixedWalls
    {
        type            zeroGradient;
    }
    frontAndBack
    {
        type            empty;
    }
}


// ************************************************************************* //
