/*--------------------------------*- C++ -*----------------------------------*\
  =========                 |
  \\      /  F ield         | OpenFOAM: The Open Source CFD Toolbox
   \\    /   O peration     | Website:  https://openfoam.org
    \\  /    A nd           | Version:  8
     \\/     M anipulation  |
\*---------------------------------------------------------------------------*/
FoamFile
{
    version     2.0;
    format      ascii;
    class       volVectorField;
    location    "0.055";
    object      U;
}
// * * * * * * * * * * * * * * * * * * * * * * * * * * * * * * * * * * * * * //

dimensions      [0 1 -1 0 0 0 0];

internalField   nonuniform List<vector> 
400
(
(0.00022211 -0.000221146 0)
(0.000104182 0.000113555 0)
(-0.00110905 0.000525368 0)
(-0.00320262 0.00080997 0)
(-0.00581383 0.000948408 0)
(-0.00858489 0.000957119 0)
(-0.0112017 0.000859424 0)
(-0.0134077 0.000679709 0)
(-0.0150079 0.000440949 0)
(-0.015867 0.000164446 0)
(-0.0159091 -0.000128818 0)
(-0.0151204 -0.000416499 0)
(-0.0135536 -0.000673661 0)
(-0.0113338 -0.000872418 0)
(-0.00866349 -0.000982699 0)
(-0.00582186 -0.000974739 0)
(-0.00315384 -0.000824287 0)
(-0.00104138 -0.000521281 0)
(0.000149233 -9.8005e-05 0)
(0.00023648 0.000231308 0)
(-8.09598e-05 -0.000130619 0)
(-0.00148697 0.00152082 0)
(-0.00518494 0.00329453 0)
(-0.0106118 0.00454717 0)
(-0.0170367 0.00515475 0)
(-0.0237299 0.00514459 0)
(-0.030006 0.00460088 0)
(-0.0352802 0.0036303 0)
(-0.0390962 0.00234543 0)
(-0.0411345 0.000859674 0)
(-0.0412189 -0.000710844 0)
(-0.0393229 -0.00224327 0)
(-0.0355788 -0.00360527 0)
(-0.0302855 -0.00465607 0)
(-0.0239118 -0.00525332 0)
(-0.0170839 -0.00526868 0)
(-0.0105439 -0.0046153 0)
(-0.00506847 -0.00328903 0)
(-0.00139839 -0.00146088 0)
(-5.20879e-05 0.000178729 0)
(-0.000485015 0.00102011 0)
(-0.00336735 0.00522537 0)
(-0.00956923 0.00924452 0)
(-0.0180122 0.0120496 0)
(-0.0276442 0.0133642 0)
(-0.0374911 0.0132114 0)
(-0.0466296 0.0117611 0)
(-0.0542635 0.00925482 0)
(-0.0597673 0.00596324 0)
(-0.0627024 0.0021696 0)
(-0.062827 -0.00183139 0)
(-0.0601053 -0.0057288 0)
(-0.0547191 -0.0091928 0)
(-0.0470768 -0.0118804 0)
(-0.0378157 -0.0134552 0)
(-0.0277834 -0.0136277 0)
(-0.0179778 -0.01222 0)
(-0.00944247 -0.00925472 0)
(-0.0032559 -0.00510509 0)
(-0.000445986 -0.000910805 0)
(-0.000842964 0.00318138 0)
(-0.00514745 0.0110749 0)
(-0.0138162 0.0179632 0)
(-0.025162 0.0226114 0)
(-0.0377714 0.0246551 0)
(-0.0504485 0.0241506 0)
(-0.062088 0.0213873 0)
(-0.0717463 0.0167782 0)
(-0.0786877 0.0107922 0)
(-0.0823973 0.0039252 0)
(-0.0825886 -0.00330468 0)
(-0.0792135 -0.0103519 0)
(-0.0724755 -0.0166401 0)
(-0.0628435 -0.0215733 0)
(-0.0510598 -0.0245704 0)
(-0.0381281 -0.0251329 0)
(-0.0252514 -0.0229496 0)
(-0.0137273 -0.0180321 0)
(-0.00502552 -0.0109005 0)
(-0.000792996 -0.00299291 0)
(-0.00116222 0.00625241 0)
(-0.00683893 0.0189669 0)
(-0.0179638 0.0293171 0)
(-0.0321964 0.0360173 0)
(-0.0477205 0.0387255 0)
(-0.0631109 0.0376073 0)
(-0.0771006 0.0331268 0)
(-0.0886357 0.0259086 0)
(-0.0969086 0.0166512 0)
(-0.101358 0.00608758 0)
(-0.101665 -0.00501966 0)
(-0.0977633 -0.0158687 0)
(-0.0898523 -0.025611 0)
(-0.0784212 -0.0333631 0)
(-0.0642721 -0.0382539 0)
(-0.0485272 -0.0395181 0)
(-0.0325814 -0.0366411 0)
(-0.0180111 -0.0295399 0)
(-0.00674152 -0.0187811 0)
(-0.00110585 -0.00597949 0)
(-0.0014724 0.0101963 0)
(-0.00853214 0.0289062 0)
(-0.0221675 0.0433528 0)
(-0.0393439 0.0523121 0)
(-0.057804 0.0555863 0)
(-0.0758795 0.0535535 0)
(-0.0921554 0.0469289 0)
(-0.105496 0.0366005 0)
(-0.115055 0.0235262 0)
(-0.120249 0.00869063 0)
(-0.120741 -0.00689369 0)
(-0.116435 -0.0221642 0)
(-0.107501 -0.0359882 0)
(-0.0944094 -0.0471676 0)
(-0.0779773 -0.0544907 0)
(-0.0594133 -0.0568484 0)
(-0.0402977 -0.0534204 0)
(-0.0225177 -0.0439106 0)
(-0.00852553 -0.0288166 0)
(-0.00142063 -0.00985568 0)
(-0.00180095 0.0150346 0)
(-0.0103229 0.0409687 0)
(-0.0265943 0.0601688 0)
(-0.0468188 0.0715735 0)
(-0.0682551 0.0752687 0)
(-0.0889867 0.0719736 0)
(-0.107472 0.0627518 0)
(-0.122532 0.0488164 0)
(-0.13332 0.0314133 0)
(-0.139265 0.0117823 0)
(-0.140021 -0.00882562 0)
(-0.135461 -0.0291017 0)
(-0.125694 -0.047634 0)
(-0.111121 -0.0628917 0)
(-0.0925215 -0.0732689 0)
(-0.0711411 -0.0772161 0)
(-0.0487246 -0.0734708 0)
(-0.0274937 -0.0613652 0)
(-0.0105118 -0.0411842 0)
(-0.00177385 -0.0146858 0)
(-0.00217247 0.0208429 0)
(-0.0122982 0.0553017 0)
(-0.0313869 0.079904 0)
(-0.0547686 0.093875 0)
(-0.0791693 0.097761 0)
(-0.102435 0.0927851 0)
(-0.122942 0.0804805 0)
(-0.139527 0.0624552 0)
(-0.151405 0.0402675 0)
(-0.15806 0.0154008 0)
(-0.159164 -0.0106879 0)
(-0.154551 -0.0364833 0)
(-0.144237 -0.0603231 0)
(-0.128496 -0.0803423 0)
(-0.107985 -0.094491 0)
(-0.0839074 -0.100667 0)
(-0.0581157 -0.0969888 0)
(-0.0331664 -0.082201 0)
(-0.0128321 -0.0561735 0)
(-0.00220122 -0.0206112 0)
(-0.00261179 0.0277449 0)
(-0.014539 0.0721124 0)
(-0.036654 0.10271 0)
(-0.0632461 0.119234 0)
(-0.0904564 0.122936 0)
(-0.115932 0.115755 0)
(-0.138052 0.0998428 0)
(-0.155762 0.0772792 0)
(-0.168427 0.0499487 0)
(-0.175653 0.0195469 0)
(-0.177169 -0.012325 0)
(-0.172775 -0.0440171 0)
(-0.162356 -0.0736791 0)
(-0.145981 -0.0991407 0)
(-0.124076 -0.117875 0)
(-0.0976673 -0.127106 0)
(-0.0686018 -0.124114 0)
(-0.0397237 -0.106755 0)
(-0.0156161 -0.0741753 0)
(-0.002741 -0.0278474 0)
(-0.0031509 0.0359122 0)
(-0.017135 0.0916509 0)
(-0.0424775 0.1287 0)
(-0.072192 0.147526 0)
(-0.101792 0.150437 0)
(-0.128818 0.140378 0)
(-0.151787 0.120296 0)
(-0.169903 0.0928181 0)
(-0.182799 0.0601516 0)
(-0.190299 0.0241428 0)
(-0.192244 -0.0135595 0)
(-0.188414 -0.051284 0)
(-0.178532 -0.0871014 0)
(-0.162374 -0.118612 0)
(-0.139985 -0.142817 0)
(-0.112027 -0.156156 0)
(-0.0801326 -0.154809 0)
(-0.0473017 -0.135328 0)
(-0.0190022 -0.0956577 0)
(-0.00344152 -0.0366868 0)
(-0.00384261 0.0455803 0)
(-0.0202153 0.114199 0)
(-0.0489293 0.157877 0)
(-0.0814118 0.178355 0)
(-0.112548 0.179531 0)
(-0.139952 0.165729 0)
(-0.162502 0.140893 0)
(-0.179859 0.108261 0)
(-0.192087 0.0703245 0)
(-0.19934 0.0289814 0)
(-0.201642 -0.0142101 0)
(-0.198784 -0.0577179 0)
(-0.19031 -0.0996985 0)
(-0.175615 -0.137666 0)
(-0.154198 -0.168225 0)
(-0.126088 -0.186963 0)
(-0.0923879 -0.188677 0)
(-0.0559654 -0.16807 0)
(-0.0231586 -0.121134 0)
(-0.00437486 -0.0475158 0)
(-0.00478591 0.0570932 0)
(-0.0239954 0.140062 0)
(-0.0560855 0.190026 0)
(-0.090517 0.210887 0)
(-0.121663 0.208912 0)
(-0.147546 0.190281 0)
(-0.16774 0.16014 0)
(-0.182618 0.122349 0)
(-0.19286 0.0795927 0)
(-0.199065 0.0336722 0)
(-0.201518 -0.0141246 0)
(-0.200069 -0.0626077 0)
(-0.194091 -0.110244 0)
(-0.182548 -0.154688 0)
(-0.164227 -0.192328 0)
(-0.138217 -0.217946 0)
(-0.104622 -0.224708 0)
(-0.0656619 -0.204792 0)
(-0.0283121 -0.151111 0)
(-0.00566139 -0.0608544 0)
(-0.00617175 0.0709992 0)
(-0.0288456 0.169555 0)
(-0.0640002 0.224535 0)
(-0.0987652 0.243572 0)
(-0.127388 0.236437 0)
(-0.148881 0.211709 0)
(-0.163973 0.175864 0)
(-0.174046 0.133297 0)
(-0.180547 0.0867086 0)
(-0.18461 0.0375984 0)
(-0.186841 -0.0132236 0)
(-0.187202 -0.0651364 0)
(-0.184955 -0.117181 0)
(-0.178649 -0.16747 0)
(-0.166272 -0.212505 0)
(-0.145676 -0.246498 0)
(-0.115375 -0.260902 0)
(-0.0760982 -0.244653 0)
(-0.0347807 -0.185991 0)
(-0.00751245 -0.0774397 0)
(-0.00835847 0.0882246 0)
(-0.0353553 0.202922 0)
(-0.0725385 0.260037 0)
(-0.10465 0.273733 0)
(-0.126765 0.258805 0)
(-0.13981 0.226705 0)
(-0.146226 0.185156 0)
(-0.148641 0.138809 0)
(-0.149334 0.0900783 0)
(-0.149955 0.0399171 0)
(-0.151423 -0.0115509 0)
(-0.153871 -0.0644762 0)
(-0.156558 -0.118736 0)
(-0.157772 -0.173266 0)
(-0.154784 -0.225185 0)
(-0.144064 -0.268671 0)
(-0.121935 -0.29376 0)
(-0.0864264 -0.28564 0)
(-0.0429649 -0.225834 0)
(-0.0102931 -0.0983614 0)
(-0.0119548 0.110329 0)
(-0.0442643 0.240028 0)
(-0.0807818 0.293742 0)
(-0.104929 0.296966 0)
(-0.114602 0.271239 0)
(-0.113926 0.230936 0)
(-0.107526 0.184509 0)
(-0.0992949 0.136281 0)
(-0.0921547 0.0879474 0)
(-0.0880743 0.039652 0)
(-0.0881664 -0.00930835 0)
(-0.0927415 -0.0599611 0)
(-0.101237 -0.113184 0)
(-0.111996 -0.169081 0)
(-0.121963 -0.226005 0)
(-0.12646 -0.279017 0)
(-0.119313 -0.317694 0)
(-0.0944523 -0.323701 0)
(-0.0531153 -0.269798 0)
(-0.0145577 -0.125216 0)
(-0.0177224 0.139894 0)
(-0.0557388 0.279469 0)
(-0.0852637 0.320152 0)
(-0.0924697 0.306348 0)
(-0.0816265 0.267341 0)
(-0.0613005 0.219378 0)
(-0.0382549 0.170364 0)
(-0.0171233 0.123361 0)
(-0.00089132 0.0788387 0)
(0.00862037 0.0359423 0)
(0.010383 -0.00684233 0)
(0.00396462 -0.0513288 0)
(-0.0104459 -0.0993474 0)
(-0.0317395 -0.152324 0)
(-0.0573105 -0.210423 0)
(-0.0822378 -0.270815 0)
(-0.0983969 -0.324488 0)
(-0.0947318 -0.351422 0)
(-0.0642822 -0.314934 0)
(-0.0208017 -0.160319 0)
(-0.0255711 0.181417 0)
(-0.0665475 0.316254 0)
(-0.0754213 0.328468 0)
(-0.0519384 0.291301 0)
(-0.0115141 0.239314 0)
(0.03307 0.187216 0)
(0.074345 0.140174 0)
(0.108318 0.0988963 0)
(0.132999 0.0622573 0)
(0.14742 0.0284623 0)
(0.151039 -0.00454137 0)
(0.143437 -0.0389797 0)
(0.124289 -0.0772508 0)
(0.0936225 -0.121851 0)
(0.0525118 -0.174943 0)
(0.00439195 -0.236932 0)
(-0.0428459 -0.302951 0)
(-0.0744778 -0.35591 0)
(-0.0711256 -0.353661 0)
(-0.0280977 -0.207281 0)
(-0.0296913 0.239194 0)
(-0.0612848 0.335141 0)
(-0.0233461 0.299022 0)
(0.0477091 0.237862 0)
(0.122954 0.180152 0)
(0.190412 0.132399 0)
(0.245771 0.0945679 0)
(0.287923 0.0644889 0)
(0.317118 0.0396984 0)
(0.333894 0.0179718 0)
(0.338525 -0.00269873 0)
(0.330783 -0.024305 0)
(0.309856 -0.0490757 0)
(0.274429 -0.0797544 0)
(0.223134 -0.119778 0)
(0.155745 -0.172859 0)
(0.0755229 -0.24073 0)
(-0.00564735 -0.316831 0)
(-0.0556116 -0.367036 0)
(-0.0286208 -0.267081 0)
(0.00811911 0.281992 0)
(0.0196938 0.294871 0)
(0.138448 0.210486 0)
(0.262906 0.142627 0)
(0.361542 0.0960893 0)
(0.436079 0.0645906 0)
(0.490986 0.0431171 0)
(0.5298 0.0279642 0)
(0.555351 0.0165706 0)
(0.569579 0.00720358 0)
(0.573466 -0.00141553 0)
(0.567039 -0.0104308 0)
(0.54932 -0.0211503 0)
(0.518155 -0.03543 0)
(0.470052 -0.0562318 0)
(0.400203 -0.0883234 0)
(0.302254 -0.138741 0)
(0.171803 -0.215553 0)
(0.0405862 -0.311124 0)
(0.0183467 -0.299877 0)
(0.299669 0.146158 0)
(0.396392 0.127538 0)
(0.557408 0.0760397 0)
(0.674125 0.04359 0)
(0.742996 0.0253832 0)
(0.785636 0.0150339 0)
(0.81334 0.00901855 0)
(0.831261 0.00535647 0)
(0.842281 0.00293207 0)
(0.848033 0.00111969 0)
(0.849285 -0.000464282 0)
(0.846144 -0.00212279 0)
(0.838065 -0.00420157 0)
(0.823635 -0.00725739 0)
(0.800082 -0.0123513 0)
(0.762168 -0.0215925 0)
(0.698188 -0.039118 0)
(0.583506 -0.0725291 0)
(0.415732 -0.1278 0)
(0.308838 -0.149484 0)
)
;

boundaryField
{
    movingWall
    {
        type            fixedValue;
        value           uniform (1 0 0);
    }
    fixedWalls
    {
        type            noSlip;
    }
    frontAndBack
    {
        type            empty;
    }
}


// ************************************************************************* //
