# Probe 0 (-1 0 -0.001)
# Probe 1 (-0.75 0 -0.001)
# Probe 2 (-0.5 0 -0.001)
# Probe 3 (0.5 0 -0.001)
# Probe 4 (0.75 0 -0.001)
# Probe 5 (1 0 -0.001)
# Probe 6 (1.25 0 -0.001)
# Probe 7 (1.5 0 -0.001)
# Probe 8 (1.75 0 -0.001)
# Probe 9 (2 0 -0.001)
# Probe 10 (2.25 0 -0.001)
# Probe 11 (2.5 0 -0.001)
# Probe 12 (2.75 0 -0.001)
# Probe 13 (3 0 -0.001)
# Probe 14 (3.25 0 -0.001)
# Probe 15 (3.5 0 -0.001)
# Probe 16 (3.75 0 -0.001)
# Probe 17 (4 0 -0.001)
# Time        0             1             2             3             4             5             6             7             8             9             10            11            12            13            14            15            16            17           
0             (0 0 0)       (0 0 0)       (0 0 0)       (0 0 0)       (0 0 0)       (0 0 0)       (0 0 0)       (0 0 0)       (0 0 0)       (0 0 0)       (0 0 0)       (0 0 0)       (0 0 0)       (0 0 0)       (0 0 0)       (0 0 0)       (0 0 0)       (0 0 0)      
1             (1.67602 0.372386 -0.991205) (1.67602 0.372386 -0.991205) (0.000909782 -0.00210978 -8.04125) (0.000663866 -2.16708e-06 -2.10604) (0.224046 -0.169411 -0.183582) (0.544896 -0.0942381 -4.42531e-17) (0.72743 -0.0527925 -4.93395e-17) (0.830058 -0.0308047 9.30618e-18) (0.891122 -0.0187512 1.90609e-18) (0.928847 -0.0117752 -1.00789e-18) (0.952793 -0.00755693 3.91282e-19) (0.952793 -0.00755693 3.91282e-19) (0.968284 -0.00492039 0) (0.978398 -0.00321193 0) (0.984981 -0.00206888 0) (0.989121 -0.00127474 0) (0.991448 -0.000692647 0) (0.99276 0.000210656 -4.59426e-28)
