/*--------------------------------*- C++ -*----------------------------------*\
  =========                 |
  \\      /  F ield         | OpenFOAM: The Open Source CFD Toolbox
   \\    /   O peration     | Website:  https://openfoam.org
    \\  /    A nd           | Version:  8
     \\/     M anipulation  |
\*---------------------------------------------------------------------------*/
FoamFile
{
    version     2.0;
    format      ascii;
    class       surfaceScalarField;
    location    "35";
    object      phi;
}
// * * * * * * * * * * * * * * * * * * * * * * * * * * * * * * * * * * * * * //

dimensions      [0 3 -1 0 0 0 0];

internalField   nonuniform List<scalar> 
880
(
-1.48375e-05
1.48374e-05
-3.04583e-05
1.56208e-05
-4.54292e-05
1.49709e-05
-5.94085e-05
1.39794e-05
-7.20981e-05
1.26896e-05
-8.32243e-05
1.11263e-05
-9.25855e-05
9.36111e-06
-9.99286e-05
7.34314e-06
-0.000105416
5.48771e-06
-0.000108283
2.86672e-06
-0.000110361
2.0779e-06
-3.51163e-07
-0.00011001
-1.62678e-05
3.11053e-05
-3.33577e-05
3.27107e-05
-4.97326e-05
3.13458e-05
-6.5019e-05
2.92658e-05
-7.88977e-05
2.65683e-05
-9.10859e-05
2.33144e-05
-0.000101385
1.96604e-05
-0.000109572
1.55298e-05
-0.000115845
1.17607e-05
-0.000119597
6.61933e-06
-0.000122674
5.15486e-06
-1.78162e-06
-0.000121244
-1.69738e-05
4.80791e-05
-3.48018e-05
5.05387e-05
-5.18698e-05
4.84137e-05
-6.77729e-05
4.51689e-05
-8.21586e-05
4.0954e-05
-9.46982e-05
3.58541e-05
-0.000105086
3.00483e-05
-0.000113087
2.35308e-05
-0.000118318
1.69915e-05
-0.000120921
9.22252e-06
-0.000119734
3.96762e-06
-5.61598e-06
-0.000115899
-1.80283e-05
6.61074e-05
-3.69627e-05
6.94731e-05
-5.50878e-05
6.65388e-05
-7.19752e-05
6.20563e-05
-8.72692e-05
5.6248e-05
-0.000100652
4.92366e-05
-0.000111865
4.12616e-05
-0.000120666
3.23323e-05
-0.000126633
2.29577e-05
-0.000129806
1.23961e-05
-0.00012877
2.93097e-06
-9.40534e-06
-0.00012498
-1.948e-05
8.55874e-05
-3.99331e-05
8.99263e-05
-5.94993e-05
8.6105e-05
-7.76965e-05
8.02535e-05
-9.41416e-05
7.26931e-05
-0.000108453
6.35483e-05
-0.000120284
5.30919e-05
-0.000129371
4.14193e-05
-0.000135396
2.89831e-05
-0.000138484
1.54843e-05
-0.000137922
2.36833e-06
-1.30668e-05
-0.00013426
-2.13865e-05
0.000106974
-4.38255e-05
0.000112365
-6.52831e-05
0.000107563
-8.52081e-05
0.000100178
-0.000103231
9.07156e-05
-0.000118967
7.92851e-05
-0.000132184
6.63084e-05
-0.000142656
5.18916e-05
-0.000149939
3.62662e-05
-0.000153815
1.93598e-05
-0.00015323
1.78387e-06
-1.67624e-05
-0.000149535
-2.37438e-05
0.000130718
-4.86573e-05
0.000137279
-7.24729e-05
0.000131378
-9.45364e-05
0.000122242
-0.00011445
0.000110629
-0.000131749
9.65851e-05
-0.000146116
8.06747e-05
-0.00015723
6.30061e-05
-0.000165008
4.40436e-05
-0.000169503
2.38553e-05
-0.000170696
2.97636e-06
-1.96396e-05
-0.000167819
-2.68229e-05
0.000157541
-5.48391e-05
0.000165295
-8.15836e-05
0.000158123
-0.00010616
0.000146818
-0.000128409
0.000132878
-0.000147785
0.000115961
-0.000164288
9.71782e-05
-0.000177637
7.63543e-05
-0.000187413
5.38202e-05
-0.000193209
2.96508e-05
-0.000194239
4.00662e-06
-2.24866e-05
-0.000191392
-3.01418e-05
0.000187682
-6.17459e-05
0.000196899
-9.18939e-05
0.000188271
-0.00011959
0.000174514
-0.00014459
0.000157877
-0.000166105
0.000137477
-0.000183878
0.000114951
-0.000197763
9.02394e-05
-0.000207988
6.40454e-05
-0.000214696
3.63583e-05
-0.000218225
7.53631e-06
-2.36774e-05
-0.000217034
-3.53076e-05
0.00022299
-7.16295e-05
0.000233221
-0.000106336
0.000222977
-0.000137244
0.000205423
-0.000165352
0.000185986
-0.000189401
0.000161525
-0.000210429
0.000135979
-0.000227594
0.000107404
-0.000240822
7.72732e-05
-0.000249669
4.5206e-05
-0.000253448
1.13151e-05
-2.45872e-05
-0.000252538
-3.92567e-05
0.000262247
-8.07241e-05
0.000274688
-0.000119848
0.000262101
-0.000155196
0.000240771
-0.000186943
0.000217733
-0.000213339
0.000187921
-0.000235088
0.000157728
-0.000252191
0.000124507
-0.000265322
9.04046e-05
-0.000274762
5.46459e-05
-0.000281698
1.82515e-05
-2.30106e-05
-0.000283275
-4.91693e-05
0.000311416
-9.76099e-05
0.000323129
-0.000143774
0.000308265
-0.000182684
0.000279681
-0.000218368
0.000253416
-0.00024759
0.000217143
-0.000273402
0.00018354
-0.000294306
0.000145411
-0.00031148
0.000107578
-0.000324328
6.74932e-05
-0.000333092
2.70156e-05
-1.99744e-05
-0.000336128
-5.09166e-05
0.000362333
-0.000108665
0.000380877
-0.000159381
0.000358981
-0.00020662
0.00032692
-0.000245154
0.00029195
-0.000276971
0.000248959
-0.000302524
0.000209094
-0.000322129
0.000165016
-0.000337658
0.000123108
-0.000349257
7.90925e-05
-0.000360255
3.80137e-05
-1.38298e-05
-0.0003664
-7.86974e-05
0.00044103
-0.000140212
0.000442392
-0.000204349
0.000423118
-0.000249767
0.000372339
-0.000293039
0.000335222
-0.000325482
0.000281402
-0.000354367
0.000237979
-0.000377412
0.000188061
-0.000398062
0.000143758
-0.0004151
9.61301e-05
-0.000431646
5.45592e-05
-3.10437e-06
-0.000442371
-5.72399e-05
0.00049827
-0.000150217
0.000535369
-0.000218738
0.000491639
-0.000285362
0.000438962
-0.000330686
0.000380546
-0.000367161
0.000317877
-0.000392155
0.000262974
-0.000410286
0.000206192
-0.000424471
0.000157943
-0.000435371
0.00010703
-0.000448025
6.7213e-05
8.31504e-06
-0.000459444
-0.000161202
0.000659472
-0.000220323
0.00059449
-0.000302717
0.000574033
-0.000349864
0.000486109
-0.000393259
0.000423941
-0.000425843
0.000350461
-0.000451533
0.000288664
-0.000473268
0.000227927
-0.000493352
0.000178026
-0.000512959
0.000126637
-0.000537359
9.16128e-05
3.19215e-05
-0.000560965
-3.19859e-05
0.000691457
-0.000217338
0.000779842
-0.000329197
0.000685892
-0.000421671
0.000578584
-0.000470194
0.000472463
-0.000499284
0.000379551
-0.000512541
0.000301921
-0.000519094
0.00023448
-0.000522621
0.000181553
-0.000526394
0.00013041
-0.000532333
9.75518e-05
4.36389e-05
-0.00054405
-0.000253692
0.000945149
-0.000309058
0.000835208
-0.000403249
0.000780083
-0.000487393
0.000662727
-0.00051504
0.000500111
-0.000550184
0.000414695
-0.000560718
0.000312455
-0.000573594
0.000247356
-0.000582844
0.000190802
-0.000596679
0.000144246
-0.000619722
0.000120595
7.69543e-05
-0.000653038
-0.00106427
0.00200942
-0.0010644
0.00083534
-0.00110408
0.000819766
-0.000968681
0.000527326
-0.000870793
0.000402223
-0.000750204
0.000294106
-0.000657474
0.000219725
-0.000578703
0.000168585
-0.000515238
0.000127337
-0.000469447
9.84552e-05
-0.000424257
7.54044e-05
5.61309e-05
-0.000403433
0.00200942
0.00284476
0.00366452
0.00419185
0.00459407
0.00488818
0.0051079
0.00527649
0.00540383
0.00550228
0.00557769
0.00563382
-8.68276e-05
3.38336e-05
-5.70157e-05
-6.73148e-05
1.40215e-05
-3.35343e-05
-5.51292e-05
-3.20572e-06
-8.97988e-06
-4.36126e-05
-1.63083e-05
4.79176e-06
-3.28529e-05
-2.66e-05
1.58403e-05
-2.17856e-05
-3.41176e-05
2.30503e-05
-1.06115e-05
-3.90099e-05
2.78359e-05
-3.86233e-05
2.80117e-05
-9.56372e-05
8.22681e-06
-7.51165e-05
-6.49919e-06
-6.18076e-05
-1.65146e-05
-4.91222e-05
-2.89937e-05
-3.72058e-05
-3.85164e-05
-2.47937e-05
-4.65297e-05
-1.21026e-05
-5.1701e-05
-5.07259e-05
-0.000102865
-4.80738e-06
-8.99541e-05
-1.94103e-05
-7.62236e-05
-3.02451e-05
-6.20347e-05
-4.31826e-05
-4.70927e-05
-5.34584e-05
-3.14834e-05
-6.2139e-05
-1.53603e-05
-6.78241e-05
-6.60862e-05
-0.000112516
-1.72712e-05
-9.97838e-05
-3.21429e-05
-8.54567e-05
-4.45722e-05
-7.0243e-05
-5.83964e-05
-5.37833e-05
-6.9918e-05
-3.618e-05
-7.97423e-05
-1.77286e-05
-8.62756e-05
-8.38148e-05
-0.000125374
-2.61572e-05
-0.000114126
-4.33906e-05
-9.97691e-05
-5.89295e-05
-8.30958e-05
-7.50696e-05
-6.42492e-05
-8.87646e-05
-4.34046e-05
-0.000100587
-2.1361e-05
-0.000108319
-0.000105176
-0.00014074
-3.49517e-05
-0.000129174
-5.49569e-05
-0.000114055
-7.40484e-05
-9.5802e-05
-9.33228e-05
-7.47681e-05
-0.000109798
-5.08e-05
-0.000124555
-2.51617e-05
-0.000133957
-0.000130337
-0.000160423
-4.23473e-05
-0.000148752
-6.66282e-05
-0.00013309
-8.97102e-05
-0.000112608
-0.000113805
-8.89516e-05
-0.000133454
-6.05788e-05
-0.000152928
-3.03588e-05
-0.000164178
-0.000160696
-0.000184127
-4.96124e-05
-0.000172088
-7.86666e-05
-0.000155623
-0.000106176
-0.000132907
-0.000136521
-0.000106264
-0.000160098
-7.28402e-05
-0.000186352
-3.69413e-05
-0.000200076
-0.000197638
-0.000211331
-5.53161e-05
-0.000198936
-9.1061e-05
-0.000182796
-0.000122316
-0.000157059
-0.000162258
-0.000128193
-0.000188963
-8.8005e-05
-0.00022654
-4.58622e-05
-0.000242219
-0.0002435
-0.000247719
-6.01358e-05
-0.000235802
-0.000102978
-0.000219546
-0.000138572
-0.000191543
-0.00019026
-0.000158813
-0.000221694
-0.000110559
-0.000274794
-5.86518e-05
-0.000294126
-0.000302152
-0.000281992
-6.14188e-05
-0.000270354
-0.000114616
-0.000257367
-0.000151559
-0.000226667
-0.000220961
-0.00019474
-0.00025362
-0.000136607
-0.000332927
-7.69338e-05
-0.0003538
-0.000379085
-0.000337656
-5.98909e-05
-0.000329625
-0.000122647
-0.000319233
-0.000161951
-0.000288634
-0.000251559
-0.000253336
-0.000288918
-0.000183055
-0.000403208
-0.000106453
-0.000430402
-0.000485538
-0.000373697
-5.25939e-05
-0.000367571
-0.000128773
-0.000366962
-0.000162561
-0.000337954
-0.000280567
-0.000314955
-0.000311918
-0.000234344
-0.000483818
-0.000154066
-0.00051068
-0.000639604
-0.000457264
-3.77005e-05
-0.000462694
-0.000123343
-0.000472881
-0.000152373
-0.000453935
-0.000299512
-0.00043519
-0.000330664
-0.000343134
-0.000575874
-0.000238624
-0.00061519
-0.000878228
-0.000478605
-1.85392e-05
-0.000486614
-0.000115335
-0.000515288
-0.0001237
-0.000511801
-0.000302999
-0.000539571
-0.000302894
-0.000462512
-0.000652933
-0.000397211
-0.000680491
-0.00127544
-0.000598182
1.86773e-05
-0.000633897
-7.96196e-05
-0.000693087
-6.45093e-05
-0.000729177
-0.000266909
-0.000793027
-0.000239044
-0.000742835
-0.000703126
-0.000681522
-0.000741804
-0.00195696
-0.0005658
4.04268e-05
-0.000593017
-5.24019e-05
-0.000660292
2.76507e-06
-0.000727598
-0.000199603
-0.000899618
-6.70234e-05
-0.000975791
-0.000626953
-0.00103915
-0.000678443
-0.00299611
-0.000711
9.83884e-05
-0.00079107
2.76684e-05
-0.000919365
0.00013106
-0.00108157
-3.74023e-05
-0.00125956
0.000110969
-0.00135854
-0.000527975
-0.00101992
-0.00101706
-0.00401604
-0.000353659
4.8614e-05
-0.000347539
2.15483e-05
-0.000247938
3.14594e-05
-0.000233236
-5.21042e-05
2.08682e-06
-0.000124354
3.89526e-05
-0.00056484
0.0003651
-0.0013432
-0.00365094
0.00568243
0.00570398
0.00573544
0.00568333
0.00555898
0.00499414
0.00365094
-1.44869e-06
1.44869e-06
-2.71878e-06
1.27009e-06
-3.48829e-06
7.69509e-07
-3.69483e-06
2.06545e-07
-3.32093e-06
-3.739e-07
-2.46846e-06
-8.52471e-07
-1.27061e-06
-1.19785e-06
-1.27061e-06
-1.66633e-06
3.11502e-06
-3.10886e-06
2.71262e-06
-3.95865e-06
1.6193e-06
-4.13585e-06
3.83738e-07
-3.68974e-06
-8.20006e-07
-2.73401e-06
-1.80821e-06
-1.40538e-06
-2.52648e-06
-2.67599e-06
-2.5228e-06
5.63782e-06
-4.60281e-06
4.79263e-06
-5.74643e-06
2.76293e-06
-5.98664e-06
6.23947e-07
-5.29412e-06
-1.51252e-06
-3.88654e-06
-3.21579e-06
-1.98844e-06
-4.42458e-06
-4.66443e-06
-3.01182e-06
8.64964e-06
-5.43761e-06
7.21841e-06
-6.68032e-06
4.00564e-06
-6.76074e-06
7.04367e-07
-5.8925e-06
-2.38076e-06
-4.30018e-06
-4.80811e-06
-2.19014e-06
-6.53461e-06
-6.85457e-06
-5.7813e-06
1.44309e-05
-9.87976e-06
1.13169e-05
-1.15601e-05
5.68601e-06
-1.15065e-05
6.50748e-07
-9.79948e-06
-4.08779e-06
-7.0179e-06
-7.5897e-06
-3.5412e-06
-1.00113e-05
-1.03958e-05
-6.99796e-06
2.14289e-05
-1.18434e-05
1.61623e-05
-1.36403e-05
7.48287e-06
-1.31888e-05
1.99253e-07
-1.11173e-05
-6.15928e-06
-7.9353e-06
-1.07717e-05
-3.99093e-06
-1.39557e-05
-1.43867e-05
-1.59808e-05
3.74097e-05
-2.43272e-05
2.45088e-05
-2.52133e-05
8.36889e-06
-2.31204e-05
-1.89364e-06
-1.86275e-05
-1.06522e-05
-1.28752e-05
-1.6524e-05
-6.38064e-06
-2.04502e-05
-2.07673e-05
-1.96061e-05
-2.86316e-05
-2.92426e-05
-2.63445e-05
-2.11564e-05
-1.46301e-05
-7.24439e-06
)
;

boundaryField
{
    movingWall
    {
        type            calculated;
        value           uniform 0;
    }
    fixedWalls
    {
        type            calculated;
        value           uniform 0;
    }
    frontAndBack
    {
        type            empty;
        value           nonuniform List<scalar> 0();
    }
}


// ************************************************************************* //
