/*--------------------------------*- C++ -*----------------------------------*\
  =========                 |
  \\      /  F ield         | OpenFOAM: The Open Source CFD Toolbox
   \\    /   O peration     | Website:  https://openfoam.org
    \\  /    A nd           | Version:  8
     \\/     M anipulation  |
\*---------------------------------------------------------------------------*/
FoamFile
{
    version     2.0;
    format      ascii;
    class       volScalarField;
    location    "1.8";
    object      p;
}
// * * * * * * * * * * * * * * * * * * * * * * * * * * * * * * * * * * * * * //

dimensions      [0 2 -2 0 0 0 0];

internalField   nonuniform List<scalar> 
400
(
-2.43361e-16
-3.27071e-16
-3.56953e-16
-3.95552e-16
-4.64513e-16
-5.00167e-16
-5.9368e-16
-6.93414e-16
-7.64084e-16
-8.06851e-16
-8.66642e-16
-9.18217e-16
-9.57899e-16
-9.7101e-16
-9.55467e-16
-9.39762e-16
-8.49306e-16
-6.8848e-16
-5.89631e-16
-5.42226e-16
-8.39625e-16
-6.49364e-16
-5.65228e-16
-5.11417e-16
-4.95301e-16
-4.95153e-16
-5.83543e-16
-6.68669e-16
-7.10624e-16
-7.20747e-16
-7.94204e-16
-8.44321e-16
-8.82282e-16
-8.61629e-16
-8.46982e-16
-8.67011e-16
-8.84818e-16
-7.70482e-16
-7.34687e-16
-8.46792e-16
-9.86216e-16
-7.90623e-16
-6.70658e-16
-5.33703e-16
-4.238e-16
-3.79465e-16
-5.64028e-16
-7.1131e-16
-7.21622e-16
-6.76637e-16
-7.50232e-16
-7.2248e-16
-7.62436e-16
-8.07186e-16
-8.19221e-16
-8.51975e-16
-9.58565e-16
-8.24257e-16
-8.46326e-16
-9.53635e-16
-1.07299e-15
-8.11219e-16
-7.05916e-16
-4.94698e-16
-2.98037e-16
-2.9957e-16
-5.2175e-16
-6.63082e-16
-7.04258e-16
-5.73146e-16
-8.73448e-16
-6.41732e-16
-7.07947e-16
-7.40768e-16
-9.35675e-16
-8.7137e-16
-9.45853e-16
-8.32027e-16
-7.7692e-16
-9.9121e-16
-9.27331e-16
-7.90195e-16
-7.70632e-16
-6.56991e-16
-2.60225e-16
-3.5702e-16
-3.96128e-16
-5.64693e-16
-7.62901e-16
-6.38021e-16
-8.18321e-16
-5.93425e-16
-6.93545e-16
-8.10665e-16
-7.66949e-16
-8.19234e-16
-9.86807e-16
-9.1702e-16
-8.14059e-16
-8.73299e-16
-9.72843e-16
-4.92147e-16
-7.60221e-16
-7.98183e-16
-3.39523e-16
-5.07333e-16
-4.03419e-16
-3.58921e-16
-7.63804e-16
-6.59164e-16
-6.94392e-16
-5.23241e-16
-6.11321e-16
-6.38821e-16
-9.0572e-16
-1.01218e-15
-1.0963e-15
-9.17583e-16
-8.52553e-16
-1.04859e-15
-8.47324e-16
-8.50233e-16
-8.19685e-16
-9.16482e-16
-4.55043e-16
-3.24775e-16
-4.60915e-16
-2.53005e-16
-5.6091e-16
-4.24732e-16
-5.37475e-16
-4.35664e-16
-4.51198e-16
-4.91665e-16
-1.00538e-15
-1.22934e-15
-1.33613e-15
-1.08915e-15
-9.79989e-16
-9.19664e-16
-1.22254e-15
-1.1219e-15
-8.76719e-16
-5.74687e-16
-6.44171e-16
-3.78572e-16
-2.65514e-16
-1.84e-16
-2.82022e-16
-2.72149e-16
-2.40254e-16
-3.9213e-16
-2.91588e-16
-7.51296e-16
-8.64488e-16
-1.01072e-15
-1.6602e-15
-1.35814e-15
-8.49335e-16
-8.02757e-16
-9.66198e-16
-9.89761e-16
-7.76319e-16
-8.28197e-16
-7.1238e-16
-5.23053e-16
-2.29373e-16
9.51147e-18
-1.24238e-16
2.1055e-16
1.1214e-16
-1.5677e-16
-6.70194e-16
-9.51532e-16
-1.12293e-15
-1.37416e-15
-1.49846e-15
-1.55644e-15
-1.18368e-15
-7.95473e-16
-1.433e-15
-1.02406e-15
-7.59168e-16
-5.48695e-16
-6.1167e-16
-6.80017e-16
-4.92457e-16
-1.98672e-16
6.01789e-17
3.48988e-16
-1.15592e-17
-3.24917e-16
-6.39644e-16
-8.86684e-16
-1.23591e-15
-1.29159e-15
-1.25605e-15
-1.40571e-15
-1.30384e-15
-1.38122e-15
-1.78454e-15
-1.19865e-15
-7.83597e-16
-3.21637e-16
-2.41469e-16
-4.6462e-16
-2.32343e-16
-7.26243e-16
-4.10757e-17
2.38921e-16
-2.80344e-16
-4.14908e-16
-4.46553e-16
-8.50859e-16
-1.12787e-15
-1.47035e-15
-1.39054e-15
-1.34155e-15
-1.02977e-15
-1.41657e-15
-1.36201e-15
-7.62254e-16
-7.75424e-16
9.8369e-17
-2.20769e-16
-4.80885e-16
-3.13323e-16
-1.06221e-16
-3.18267e-16
-2.06941e-16
1.73875e-16
-1.75425e-16
-3.22568e-16
-8.0259e-16
-1.00249e-15
-1.30585e-15
-1.57802e-15
-1.46197e-15
-1.0294e-15
-1.47073e-15
-8.54539e-16
-9.572e-16
-4.27303e-16
5.17097e-16
-1.4568e-16
-5.00869e-16
-2.77012e-16
-2.67361e-16
6.0563e-17
6.96162e-17
3.69822e-16
1.95458e-16
-2.28475e-16
-4.42699e-16
-6.78029e-16
-1.09215e-15
-1.27035e-15
-1.91273e-15
-1.32188e-15
-9.2299e-16
-1.32792e-15
-8.86693e-16
1.77682e-16
8.78301e-16
4.53347e-16
8.3556e-17
2.17537e-16
-2.41513e-16
6.26432e-16
5.65826e-16
1.84692e-16
-1.70629e-16
-8.26106e-16
-7.25301e-16
-4.55948e-16
-8.97865e-16
-8.73574e-16
-1.05456e-15
-6.1848e-16
-1.19677e-15
-1.22171e-15
-6.73383e-16
7.65922e-16
9.12159e-16
9.42429e-16
2.6395e-16
3.90887e-16
6.57681e-17
7.21844e-16
7.89191e-16
2.83372e-16
-8.68517e-17
-3.47501e-16
-6.24005e-16
-6.44534e-16
-7.06598e-16
-5.62469e-16
-7.52207e-16
-6.70709e-16
-7.65729e-16
1.84129e-16
-4.21915e-16
3.56237e-16
1.21563e-15
1.24446e-15
8.46168e-16
9.67005e-16
7.78336e-16
9.64856e-16
7.07782e-16
3.25931e-16
-3.47182e-16
-7.00406e-16
-3.87563e-16
-6.2982e-16
-7.39782e-17
-1.75449e-16
-6.84599e-16
-1.19299e-16
2.62803e-17
4.99396e-17
-1.99232e-16
3.56901e-16
7.58922e-16
1.23699e-15
2.10976e-15
1.73666e-15
1.20658e-15
1.12237e-15
7.16456e-16
2.35969e-16
-6.01882e-16
-8.13952e-16
-7.61234e-16
-3.30869e-16
6.82216e-16
3.46728e-16
5.44637e-16
3.68685e-16
-3.45951e-16
5.60815e-16
-1.07294e-16
2.26647e-16
1.1728e-15
1.45157e-15
2.43548e-15
2.59567e-15
1.34014e-15
1.05911e-15
7.15923e-16
-2.4763e-16
-5.00034e-16
-8.50627e-16
-8.95533e-16
-2.83755e-17
7.9601e-16
1.05948e-15
1.01432e-15
1.18163e-15
4.75216e-16
6.73436e-16
-8.82252e-17
4.78493e-16
1.00728e-15
1.73482e-15
2.69475e-15
2.60594e-15
1.92929e-15
6.87806e-16
2.28972e-16
-5.58553e-17
-7.78601e-16
-1.37329e-15
-7.92663e-16
3.12616e-16
1.34969e-15
1.5191e-15
1.46679e-15
6.65538e-16
5.04357e-16
5.53395e-16
8.01083e-16
6.19687e-16
5.96097e-16
1.53596e-15
2.25358e-15
2.47813e-15
2.55984e-15
5.00237e-16
-3.45984e-16
-4.11787e-16
-8.75398e-16
-1.4472e-15
-6.78573e-16
2.17563e-16
1.00746e-15
1.41486e-15
1.70577e-15
8.40745e-16
1.71543e-16
)
;

boundaryField
{
    movingWall
    {
        type            zeroGradient;
    }
    fixedWalls
    {
        type            zeroGradient;
    }
    left
    {
        type            cyclic;
    }
    right
    {
        type            cyclic;
    }
    frontAndBack
    {
        type            empty;
    }
}


// ************************************************************************* //
