/*--------------------------------*- C++ -*----------------------------------*\
  =========                 |
  \\      /  F ield         | OpenFOAM: The Open Source CFD Toolbox
   \\    /   O peration     | Website:  https://openfoam.org
    \\  /    A nd           | Version:  8
     \\/     M anipulation  |
\*---------------------------------------------------------------------------*/
FoamFile
{
    version     2.0;
    format      ascii;
    class       volVectorField;
    location    "1.8";
    object      U;
}
// * * * * * * * * * * * * * * * * * * * * * * * * * * * * * * * * * * * * * //

dimensions      [0 1 -1 0 0 0 0];

internalField   nonuniform List<vector> 
400
(
(0.0249934 -2.22073e-17 0)
(0.0249934 -3.23717e-17 0)
(0.0249934 -2.73425e-17 0)
(0.0249934 -1.42336e-17 0)
(0.0249934 -6.19088e-18 0)
(0.0249934 -6.22585e-19 0)
(0.0249934 5.08823e-18 0)
(0.0249934 6.20202e-18 0)
(0.0249934 6.44771e-18 0)
(0.0249934 6.27186e-18 0)
(0.0249934 8.92307e-18 0)
(0.0249934 1.12745e-17 0)
(0.0249934 1.16786e-17 0)
(0.0249934 1.03598e-17 0)
(0.0249934 9.31231e-18 0)
(0.0249934 8.04873e-18 0)
(0.0249934 6.11446e-18 0)
(0.0249934 -4.45591e-18 0)
(0.0249934 -2.02849e-17 0)
(0.0249934 -2.79795e-17 0)
(0.0749804 -7.2609e-17 0)
(0.0749804 -7.40045e-17 0)
(0.0749804 -5.69074e-17 0)
(0.0749804 -2.80979e-17 0)
(0.0749804 -1.19595e-17 0)
(0.0749804 1.31422e-19 0)
(0.0749804 1.89013e-17 0)
(0.0749804 3.02797e-17 0)
(0.0749804 3.0838e-17 0)
(0.0749804 3.1029e-17 0)
(0.0749804 4.04318e-17 0)
(0.0749804 4.24546e-17 0)
(0.0749804 4.52432e-17 0)
(0.0749804 4.61455e-17 0)
(0.0749804 4.32823e-17 0)
(0.0749804 3.86882e-17 0)
(0.0749804 3.34106e-17 0)
(0.0749804 3.7269e-18 0)
(0.0749804 -3.17121e-17 0)
(0.0749804 -6.16777e-17 0)
(0.124968 -1.26566e-16 0)
(0.124968 -1.3225e-16 0)
(0.124968 -8.97365e-17 0)
(0.124968 -5.48636e-17 0)
(0.124968 -3.2722e-17 0)
(0.124968 -1.32674e-17 0)
(0.124968 1.28795e-17 0)
(0.124968 3.24218e-17 0)
(0.124968 4.38472e-17 0)
(0.124968 4.84004e-17 0)
(0.124968 7.68803e-17 0)
(0.124968 6.94323e-17 0)
(0.124968 7.76042e-17 0)
(0.124968 7.70503e-17 0)
(0.124968 8.14219e-17 0)
(0.124968 6.34808e-17 0)
(0.124968 4.86313e-17 0)
(0.124968 1.20986e-17 0)
(0.124968 -4.81155e-17 0)
(0.124968 -9.9828e-17 0)
(0.174956 -1.51767e-16 0)
(0.174956 -1.51698e-16 0)
(0.174956 -1.12706e-16 0)
(0.174956 -6.63965e-17 0)
(0.174956 -5.97993e-17 0)
(0.174956 -2.81492e-17 0)
(0.174956 -1.29493e-17 0)
(0.174956 1.26599e-17 0)
(0.174956 4.69445e-17 0)
(0.174956 6.23922e-17 0)
(0.174956 8.45656e-17 0)
(0.174956 8.74111e-17 0)
(0.174956 9.46792e-17 0)
(0.174956 9.62546e-17 0)
(0.174956 8.50616e-17 0)
(0.174956 7.83102e-17 0)
(0.174956 6.75282e-17 0)
(0.174956 3.93233e-17 0)
(0.174956 -2.95595e-17 0)
(0.174956 -1.03518e-16 0)
(0.224945 -1.35312e-16 0)
(0.224945 -1.66477e-16 0)
(0.224945 -1.31216e-16 0)
(0.224945 -9.52755e-17 0)
(0.224945 -8.18343e-17 0)
(0.224945 -4.45541e-17 0)
(0.224945 -3.15215e-17 0)
(0.224945 -4.19302e-18 0)
(0.224945 4.8445e-17 0)
(0.224945 7.05126e-17 0)
(0.224945 7.67929e-17 0)
(0.224945 9.19509e-17 0)
(0.224945 9.78262e-17 0)
(0.224945 9.91804e-17 0)
(0.224945 1.05583e-16 0)
(0.224945 1.16084e-16 0)
(0.224945 1.10731e-16 0)
(0.224945 7.35877e-17 0)
(0.224945 1.09043e-17 0)
(0.224945 -6.70121e-17 0)
(0.274936 -1.23293e-16 0)
(0.274936 -1.50243e-16 0)
(0.274936 -1.63182e-16 0)
(0.274936 -1.38907e-16 0)
(0.274936 -1.1438e-16 0)
(0.274936 -8.83713e-17 0)
(0.274936 -3.41996e-17 0)
(0.274936 -1.29949e-17 0)
(0.274936 3.34886e-17 0)
(0.274936 6.32852e-17 0)
(0.274936 7.49107e-17 0)
(0.274936 9.18083e-17 0)
(0.274936 9.67464e-17 0)
(0.274936 1.05914e-16 0)
(0.274936 1.52036e-16 0)
(0.274936 1.70795e-16 0)
(0.274936 1.61271e-16 0)
(0.274936 1.05505e-16 0)
(0.274936 3.32427e-17 0)
(0.274936 -5.28637e-17 0)
(0.324928 -1.10624e-16 0)
(0.324928 -1.38865e-16 0)
(0.324928 -1.94025e-16 0)
(0.324928 -2.10829e-16 0)
(0.324928 -1.48307e-16 0)
(0.324928 -1.18352e-16 0)
(0.324928 -6.20696e-17 0)
(0.324928 -7.57133e-18 0)
(0.324928 2.68206e-17 0)
(0.324928 6.57614e-17 0)
(0.324928 7.48901e-17 0)
(0.324928 1.05075e-16 0)
(0.324928 1.05999e-16 0)
(0.324928 1.59972e-16 0)
(0.324928 1.77024e-16 0)
(0.324928 1.91178e-16 0)
(0.324928 1.94937e-16 0)
(0.324928 1.34469e-16 0)
(0.324928 2.65671e-17 0)
(0.324928 -7.4996e-17 0)
(0.374922 -1.33564e-16 0)
(0.374922 -1.96585e-16 0)
(0.374922 -2.38927e-16 0)
(0.374922 -2.44727e-16 0)
(0.374922 -1.86389e-16 0)
(0.374922 -1.31767e-16 0)
(0.374922 -9.22674e-17 0)
(0.374922 -1.55217e-17 0)
(0.374922 4.06689e-17 0)
(0.374922 6.57432e-17 0)
(0.374922 7.80912e-17 0)
(0.374922 1.03202e-16 0)
(0.374922 1.54025e-16 0)
(0.374922 2.07506e-16 0)
(0.374922 2.2399e-16 0)
(0.374922 2.19151e-16 0)
(0.374922 1.81749e-16 0)
(0.374922 1.33902e-16 0)
(0.374922 3.75078e-17 0)
(0.374922 -6.72443e-17 0)
(0.424918 -1.21699e-16 0)
(0.424918 -2.12528e-16 0)
(0.424918 -2.61979e-16 0)
(0.424918 -2.61801e-16 0)
(0.424918 -2.34857e-16 0)
(0.424918 -1.66929e-16 0)
(0.424918 -8.68768e-17 0)
(0.424918 -1.20627e-17 0)
(0.424918 4.55877e-17 0)
(0.424918 7.8893e-17 0)
(0.424918 1.12281e-16 0)
(0.424918 1.18327e-16 0)
(0.424918 1.61986e-16 0)
(0.424918 1.92404e-16 0)
(0.424918 2.43633e-16 0)
(0.424918 2.26631e-16 0)
(0.424918 1.41746e-16 0)
(0.424918 9.71749e-17 0)
(0.424918 5.33111e-17 0)
(0.424918 -1.14034e-17 0)
(0.474916 -6.41038e-17 0)
(0.474916 -1.69082e-16 0)
(0.474916 -2.31573e-16 0)
(0.474916 -2.80533e-16 0)
(0.474916 -2.78837e-16 0)
(0.474916 -2.04617e-16 0)
(0.474916 -1.22069e-16 0)
(0.474916 1.18018e-17 0)
(0.474916 4.77156e-17 0)
(0.474916 1.07661e-16 0)
(0.474916 1.50203e-16 0)
(0.474916 1.4501e-16 0)
(0.474916 1.32563e-16 0)
(0.474916 1.71541e-16 0)
(0.474916 2.01148e-16 0)
(0.474916 2.02195e-16 0)
(0.474916 1.35425e-16 0)
(0.474916 7.81018e-17 0)
(0.474916 1.79603e-17 0)
(0.474916 8.79019e-20 0)
(0.524916 -9.61071e-17 0)
(0.524916 -1.7495e-16 0)
(0.524916 -1.97244e-16 0)
(0.524916 -2.72724e-16 0)
(0.524916 -2.5088e-16 0)
(0.524916 -2.01427e-16 0)
(0.524916 -1.42193e-16 0)
(0.524916 -6.08177e-17 0)
(0.524916 4.17576e-17 0)
(0.524916 1.17466e-16 0)
(0.524916 1.10757e-16 0)
(0.524916 1.52998e-16 0)
(0.524916 1.61804e-16 0)
(0.524916 1.92255e-16 0)
(0.524916 1.77174e-16 0)
(0.524916 1.71015e-16 0)
(0.524916 1.51984e-16 0)
(0.524916 8.68001e-17 0)
(0.524916 8.68712e-18 0)
(0.524916 -3.52316e-17 0)
(0.574918 -1.61972e-16 0)
(0.574918 -1.55061e-16 0)
(0.574918 -2.12148e-16 0)
(0.574918 -2.63274e-16 0)
(0.574918 -2.04478e-16 0)
(0.574918 -1.65275e-16 0)
(0.574918 -1.18678e-16 0)
(0.574918 -9.91521e-17 0)
(0.574918 -2.52415e-17 0)
(0.574918 6.34871e-17 0)
(0.574918 1.02109e-16 0)
(0.574918 1.74583e-16 0)
(0.574918 2.45892e-16 0)
(0.574918 2.18906e-16 0)
(0.574918 1.77899e-16 0)
(0.574918 1.23034e-16 0)
(0.574918 1.09875e-16 0)
(0.574918 1.0571e-16 0)
(0.574918 3.49611e-17 0)
(0.574918 -8.02022e-17 0)
(0.624922 -1.2872e-16 0)
(0.624922 -1.44825e-16 0)
(0.624922 -2.51993e-16 0)
(0.624922 -2.50797e-16 0)
(0.624922 -2.20045e-16 0)
(0.624922 -1.70928e-16 0)
(0.624922 -1.43635e-16 0)
(0.624922 -6.63925e-17 0)
(0.624922 -7.48794e-17 0)
(0.624922 1.49303e-18 0)
(0.624922 1.6702e-16 0)
(0.624922 2.74177e-16 0)
(0.624922 3.62242e-16 0)
(0.624922 3.01606e-16 0)
(0.624922 1.92974e-16 0)
(0.624922 1.22058e-16 0)
(0.624922 4.80033e-17 0)
(0.624922 2.99711e-17 0)
(0.624922 -4.77063e-17 0)
(0.624922 -1.03154e-16 0)
(0.674928 -1.42323e-16 0)
(0.674928 -1.97478e-16 0)
(0.674928 -2.60024e-16 0)
(0.674928 -2.10139e-16 0)
(0.674928 -2.27517e-16 0)
(0.674928 -1.69384e-16 0)
(0.674928 -1.36786e-16 0)
(0.674928 -9.67535e-17 0)
(0.674928 -5.30704e-17 0)
(0.674928 3.0277e-17 0)
(0.674928 1.80321e-16 0)
(0.674928 3.22208e-16 0)
(0.674928 3.70374e-16 0)
(0.674928 3.5545e-16 0)
(0.674928 2.50939e-16 0)
(0.674928 1.52166e-16 0)
(0.674928 5.54903e-17 0)
(0.674928 -6.10493e-17 0)
(0.674928 -9.50075e-17 0)
(0.674928 -1.42326e-16 0)
(0.724936 -2.67796e-16 0)
(0.724936 -2.07492e-16 0)
(0.724936 -1.75489e-16 0)
(0.724936 -1.70769e-16 0)
(0.724936 -1.69012e-16 0)
(0.724936 -1.71999e-16 0)
(0.724936 -1.69643e-16 0)
(0.724936 -1.49719e-16 0)
(0.724936 -6.18484e-17 0)
(0.724936 5.02161e-17 0)
(0.724936 1.5869e-16 0)
(0.724936 2.82432e-16 0)
(0.724936 3.34266e-16 0)
(0.724936 3.10742e-16 0)
(0.724936 3.04219e-16 0)
(0.724936 1.56674e-16 0)
(0.724936 6.23129e-17 0)
(0.724936 -1.4865e-17 0)
(0.724936 -1.19222e-16 0)
(0.724936 -2.14101e-16 0)
(0.774945 -2.14797e-16 0)
(0.774945 -1.70501e-16 0)
(0.774945 -8.40039e-17 0)
(0.774945 -7.47401e-17 0)
(0.774945 -1.08091e-16 0)
(0.774945 -2.39458e-16 0)
(0.774945 -2.32392e-16 0)
(0.774945 -1.89147e-16 0)
(0.774945 -8.41635e-17 0)
(0.774945 9.46382e-18 0)
(0.774945 1.21108e-16 0)
(0.774945 2.43057e-16 0)
(0.774945 2.99255e-16 0)
(0.774945 3.09719e-16 0)
(0.774945 2.69445e-16 0)
(0.774945 1.37053e-16 0)
(0.774945 5.394e-17 0)
(0.774945 -7.74835e-17 0)
(0.774945 -1.39668e-16 0)
(0.774945 -1.39487e-16 0)
(0.824956 -1.0659e-16 0)
(0.824956 -9.7352e-17 0)
(0.824956 -4.11497e-17 0)
(0.824956 -2.45829e-17 0)
(0.824956 -9.09217e-17 0)
(0.824956 -2.1949e-16 0)
(0.824956 -2.3844e-16 0)
(0.824956 -1.62524e-16 0)
(0.824956 -7.37421e-17 0)
(0.824956 -1.37769e-17 0)
(0.824956 9.29114e-17 0)
(0.824956 1.46861e-16 0)
(0.824956 2.20472e-16 0)
(0.824956 2.70513e-16 0)
(0.824956 2.00484e-16 0)
(0.824956 1.46036e-16 0)
(0.824956 2.50733e-17 0)
(0.824956 -1.1185e-16 0)
(0.824956 -1.15765e-16 0)
(0.824956 -9.0997e-17 0)
(0.874968 -5.40933e-17 0)
(0.874968 -4.38032e-17 0)
(0.874968 -2.35015e-17 0)
(0.874968 -3.10733e-17 0)
(0.874968 -7.87121e-17 0)
(0.874968 -1.50868e-16 0)
(0.874968 -1.97943e-16 0)
(0.874968 -1.51017e-16 0)
(0.874968 -3.00279e-17 0)
(0.874968 2.47744e-17 0)
(0.874968 4.9409e-17 0)
(0.874968 1.03836e-16 0)
(0.874968 1.75687e-16 0)
(0.874968 1.74525e-16 0)
(0.874968 1.32965e-16 0)
(0.874968 1.09136e-16 0)
(0.874968 6.1047e-18 0)
(0.874968 -3.80146e-17 0)
(0.874968 -2.34327e-17 0)
(0.874968 -5.3043e-17 0)
(0.92498 9.49302e-18 0)
(0.92498 -7.21256e-17 0)
(0.92498 -4.32594e-17 0)
(0.92498 3.13161e-17 0)
(0.92498 -4.40845e-17 0)
(0.92498 -8.23072e-17 0)
(0.92498 -1.07093e-16 0)
(0.92498 -1.65967e-16 0)
(0.92498 -6.98686e-19 0)
(0.92498 7.78381e-17 0)
(0.92498 3.64754e-17 0)
(0.92498 8.3568e-17 0)
(0.92498 1.1933e-16 0)
(0.92498 8.50926e-17 0)
(0.92498 9.35171e-17 0)
(0.92498 8.14551e-17 0)
(0.92498 4.19314e-17 0)
(0.92498 -1.29124e-17 0)
(0.92498 4.61931e-17 0)
(0.92498 5.12205e-17 0)
(0.974993 1.21854e-17 0)
(0.974993 -6.00371e-17 0)
(0.974993 -2.46366e-17 0)
(0.974993 1.64443e-17 0)
(0.974993 -4.28092e-18 0)
(0.974993 -1.82972e-17 0)
(0.974993 -4.92139e-17 0)
(0.974993 -7.34295e-17 0)
(0.974993 2.80727e-18 0)
(0.974993 4.06106e-17 0)
(0.974993 3.42136e-17 0)
(0.974993 2.13437e-17 0)
(0.974993 3.03986e-17 0)
(0.974993 2.09995e-17 0)
(0.974993 4.29385e-17 0)
(0.974993 5.59523e-17 0)
(0.974993 3.05797e-17 0)
(0.974993 2.03474e-18 0)
(0.974993 5.31075e-18 0)
(0.974993 3.9285e-17 0)
)
;

boundaryField
{
    movingWall
    {
        type            fixedValue;
        value           uniform (1 0 0);
    }
    fixedWalls
    {
        type            noSlip;
    }
    left
    {
        type            cyclic;
    }
    right
    {
        type            cyclic;
    }
    frontAndBack
    {
        type            empty;
    }
}


// ************************************************************************* //
