/*--------------------------------*- C++ -*----------------------------------*\
  =========                 |
  \\      /  F ield         | OpenFOAM: The Open Source CFD Toolbox
   \\    /   O peration     | Website:  https://openfoam.org
    \\  /    A nd           | Version:  8
     \\/     M anipulation  |
\*---------------------------------------------------------------------------*/
FoamFile
{
    version     2.0;
    format      ascii;
    class       surfaceScalarField;
    location    "14.5";
    object      phi;
}
// * * * * * * * * * * * * * * * * * * * * * * * * * * * * * * * * * * * * * //

dimensions      [0 3 -1 0 0 0 0];

internalField   nonuniform List<scalar> 
22960
(
-1.7569e-07
1.75806e-07
-5.46663e-07
3.70973e-07
-9.6514e-07
4.18477e-07
-1.39131e-06
4.26167e-07
-1.81711e-06
4.258e-07
-2.24146e-06
4.24348e-07
-2.66421e-06
4.22756e-07
-3.0852e-06
4.20991e-07
-3.5042e-06
4.18997e-07
-3.92095e-06
4.1675e-07
-4.33519e-06
4.14238e-07
-4.74665e-06
4.11457e-07
-5.15505e-06
4.08404e-07
-5.56013e-06
4.05078e-07
-5.96161e-06
4.01479e-07
-6.35921e-06
3.97609e-07
-6.75268e-06
3.93467e-07
-7.14174e-06
3.89055e-07
-7.52611e-06
3.84373e-07
-7.90553e-06
3.79425e-07
-8.27975e-06
3.74211e-07
-8.64848e-06
3.68735e-07
-9.01148e-06
3.62998e-07
-9.36848e-06
3.57005e-07
-9.71924e-06
3.5076e-07
-1.00635e-05
3.44267e-07
-1.0401e-05
3.37533e-07
-1.07316e-05
3.30563e-07
-1.1055e-05
3.23367e-07
-1.13709e-05
3.15954e-07
-1.16793e-05
3.08334e-07
-1.19798e-05
3.00522e-07
-1.22723e-05
2.92533e-07
-1.25567e-05
2.84388e-07
-1.28328e-05
2.76107e-07
-1.31005e-05
2.6772e-07
-1.33598e-05
2.59259e-07
-1.36106e-05
2.50764e-07
-1.38528e-05
2.42286e-07
-1.40867e-05
2.33884e-07
-1.43124e-05
2.25634e-07
-1.453e-05
2.17628e-07
-1.474e-05
2.09986e-07
-1.49428e-05
2.02858e-07
-1.51393e-05
1.96439e-07
-1.53303e-05
1.90982e-07
-1.55171e-05
1.86828e-07
-1.57015e-05
1.84435e-07
-1.5886e-05
1.8444e-07
-1.60737e-05
1.8774e-07
-1.62693e-05
1.95642e-07
-1.64794e-05
2.1011e-07
-1.67137e-05
2.34228e-07
-1.69867e-05
2.73031e-07
-1.73222e-05
3.35537e-07
-1.77634e-05
4.41153e-07
-1.83936e-05
6.30153e-07
-1.93744e-05
9.80871e-07
-2.17479e-05
2.37346e-06
5.47586e-06
-2.72237e-05
-3.72864e-07
5.48669e-07
-1.0197e-06
1.0178e-06
-1.73425e-06
1.13303e-06
-2.4608e-06
1.15272e-06
-3.18785e-06
1.15286e-06
-3.91305e-06
1.14955e-06
-4.63554e-06
1.14525e-06
-5.35472e-06
1.14017e-06
-6.07005e-06
1.13433e-06
-6.781e-06
1.1277e-06
-7.48705e-06
1.12029e-06
-8.18768e-06
1.11209e-06
-8.88238e-06
1.1031e-06
-9.57064e-06
1.09333e-06
-1.02519e-05
1.08278e-06
-1.09258e-05
1.07145e-06
-1.15917e-05
1.05936e-06
-1.22491e-05
1.04649e-06
-1.28976e-05
1.03287e-06
-1.35367e-05
1.0185e-06
-1.41659e-05
1.00339e-06
-1.47847e-05
9.87548e-07
-1.53927e-05
9.70987e-07
-1.59894e-05
9.53721e-07
-1.65744e-05
9.35765e-07
-1.71473e-05
9.17136e-07
-1.77076e-05
8.97853e-07
-1.8255e-05
8.7794e-07
-1.8789e-05
8.57423e-07
-1.93094e-05
8.3633e-07
-1.98158e-05
8.14698e-07
-2.03078e-05
7.92567e-07
-2.07853e-05
7.69984e-07
-2.12479e-05
7.47005e-07
-2.16955e-05
7.23695e-07
-2.21279e-05
7.00133e-07
-2.2545e-05
6.76412e-07
-2.29469e-05
6.52644e-07
-2.33336e-05
6.28965e-07
-2.37052e-05
6.05542e-07
-2.40622e-05
5.82578e-07
-2.44049e-05
5.60329e-07
-2.4734e-05
5.39114e-07
-2.50505e-05
5.19341e-07
-2.53556e-05
5.01536e-07
-2.5651e-05
4.86386e-07
-2.5939e-05
4.74808e-07
-2.62226e-05
4.68047e-07
-2.6506e-05
4.67831e-07
-2.67949e-05
4.76616e-07
-2.70972e-05
4.97977e-07
-2.74244e-05
5.37301e-07
-2.77931e-05
6.0295e-07
-2.82284e-05
7.08313e-07
-2.87691e-05
8.76285e-07
-2.94774e-05
1.14946e-06
-3.04436e-05
1.5963e-06
-3.18022e-05
2.33945e-06
-3.35509e-05
4.12221e-06
6.656e-06
-3.47311e-05
-4.22341e-07
9.7101e-07
-1.13977e-06
1.73524e-06
-1.92864e-06
1.9219e-06
-2.72925e-06
1.95332e-06
-3.52993e-06
1.95354e-06
-4.32836e-06
1.94798e-06
-5.12367e-06
1.94055e-06
-5.91521e-06
1.93171e-06
-6.70238e-06
1.9215e-06
-7.48459e-06
1.90991e-06
-8.26125e-06
1.89695e-06
-9.03178e-06
1.88262e-06
-9.7956e-06
1.86693e-06
-1.05521e-05
1.84987e-06
-1.13008e-05
1.83147e-06
-1.20411e-05
1.81172e-06
-1.27724e-05
1.79064e-06
-1.34941e-05
1.76825e-06
-1.42058e-05
1.74455e-06
-1.49069e-05
1.71957e-06
-1.55968e-05
1.69332e-06
-1.62751e-05
1.66581e-06
-1.69412e-05
1.63708e-06
-1.75946e-05
1.60715e-06
-1.82349e-05
1.57604e-06
-1.88615e-05
1.54379e-06
-1.94741e-05
1.51043e-06
-2.00722e-05
1.476e-06
-2.06553e-05
1.44056e-06
-2.12231e-05
1.40414e-06
-2.17752e-05
1.36682e-06
-2.23113e-05
1.32867e-06
-2.28311e-05
1.28976e-06
-2.33343e-05
1.25019e-06
-2.38207e-05
1.21007e-06
-2.42901e-05
1.16953e-06
-2.47424e-05
1.12874e-06
-2.51776e-05
1.08788e-06
-2.55958e-05
1.04716e-06
-2.59972e-05
1.00688e-06
-2.63819e-05
9.67363e-07
-2.67506e-05
9.29027e-07
-2.71039e-05
8.92392e-07
-2.74427e-05
8.58116e-07
-2.77682e-05
8.27042e-07
-2.80821e-05
8.00262e-07
-2.83865e-05
7.79216e-07
-2.86843e-05
7.65827e-07
-2.89792e-05
7.62718e-07
-2.92761e-05
7.73531e-07
-2.95815e-05
8.03416e-07
-2.99041e-05
8.59849e-07
-3.0255e-05
9.53931e-07
-3.06493e-05
1.10256e-06
-3.11057e-05
1.3327e-06
-3.16452e-05
1.68892e-06
-3.22835e-05
2.23468e-06
-3.30276e-05
3.08355e-06
-3.35463e-05
4.64083e-06
6.53787e-06
-3.34281e-05
-4.31709e-07
1.40272e-06
-1.16413e-06
2.46766e-06
-1.96803e-06
2.7258e-06
-2.78337e-06
2.76866e-06
-3.5986e-06
2.76878e-06
-4.41151e-06
2.76088e-06
-5.22122e-06
2.75027e-06
-6.02709e-06
2.73758e-06
-6.82851e-06
2.72291e-06
-7.62484e-06
2.70625e-06
-8.41551e-06
2.68762e-06
-9.1999e-06
2.66701e-06
-9.97742e-06
2.64445e-06
-1.07475e-05
2.61994e-06
-1.15095e-05
2.5935e-06
-1.22629e-05
2.56514e-06
-1.30072e-05
2.53487e-06
-1.37416e-05
2.50273e-06
-1.44658e-05
2.46872e-06
-1.51791e-05
2.43288e-06
-1.5881e-05
2.39522e-06
-1.6571e-05
2.35579e-06
-1.72485e-05
2.31461e-06
-1.79131e-05
2.27171e-06
-1.85642e-05
2.22715e-06
-1.92014e-05
2.18096e-06
-1.98242e-05
2.1332e-06
-2.04321e-05
2.08392e-06
-2.10247e-05
2.03319e-06
-2.16017e-05
1.98109e-06
-2.21625e-05
1.92771e-06
-2.2707e-05
1.87313e-06
-2.32347e-05
1.81748e-06
-2.37454e-05
1.76089e-06
-2.42389e-05
1.70352e-06
-2.47149e-05
1.64554e-06
-2.51733e-05
1.58717e-06
-2.56141e-05
1.52867e-06
-2.60373e-05
1.47034e-06
-2.6443e-05
1.41256e-06
-2.68314e-05
1.35577e-06
-2.72029e-05
1.30055e-06
-2.75581e-05
1.24756e-06
-2.78976e-05
1.19769e-06
-2.82226e-05
1.15202e-06
-2.85343e-05
1.11197e-06
-2.88345e-05
1.07936e-06
-2.91252e-05
1.05659e-06
-2.94094e-05
1.04687e-06
-2.96904e-05
1.05456e-06
-2.99727e-05
1.08564e-06
-3.02613e-05
1.14845e-06
-3.05621e-05
1.25479e-06
-3.08811e-05
1.42152e-06
-3.12216e-05
1.67325e-06
-3.15782e-05
2.04555e-06
-3.19282e-05
2.58465e-06
-3.22091e-05
3.36446e-06
-3.21164e-05
4.54808e-06
5.87456e-06
-3.14531e-05
-4.33223e-07
1.83594e-06
-1.1698e-06
3.20424e-06
-1.97787e-06
3.53387e-06
-2.79729e-06
3.58808e-06
-3.61653e-06
3.58801e-06
-4.43337e-06
3.57772e-06
-5.247e-06
3.56389e-06
-6.05675e-06
3.54734e-06
-6.86203e-06
3.52818e-06
-7.66221e-06
3.50643e-06
-8.45669e-06
3.48209e-06
-9.24486e-06
3.45518e-06
-1.00261e-05
3.42572e-06
-1.07999e-05
3.39372e-06
-1.15656e-05
3.3592e-06
-1.23226e-05
3.32217e-06
-1.30704e-05
3.28267e-06
-1.38084e-05
3.24072e-06
-1.45361e-05
3.19635e-06
-1.52528e-05
3.14958e-06
-1.5958e-05
3.10046e-06
-1.66512e-05
3.04903e-06
-1.73319e-05
2.99532e-06
-1.79996e-05
2.93938e-06
-1.86537e-05
2.88127e-06
-1.92938e-05
2.82105e-06
-1.99194e-05
2.75878e-06
-2.053e-05
2.69454e-06
-2.11252e-05
2.62841e-06
-2.17046e-05
2.56049e-06
-2.22678e-05
2.49089e-06
-2.28144e-05
2.41974e-06
-2.33441e-05
2.34717e-06
-2.38566e-05
2.27336e-06
-2.43516e-05
2.19849e-06
-2.48288e-05
2.1228e-06
-2.52882e-05
2.04654e-06
-2.57296e-05
1.97005e-06
-2.61529e-05
1.89368e-06
-2.65583e-05
1.81789e-06
-2.69457e-05
1.74323e-06
-2.73155e-05
1.67037e-06
-2.76681e-05
1.60011e-06
-2.80039e-05
1.53348e-06
-2.83236e-05
1.47173e-06
-2.86281e-05
1.41649e-06
-2.89185e-05
1.36978e-06
-2.91962e-05
1.33426e-06
-2.94627e-05
1.31336e-06
-2.97197e-05
1.31159e-06
-2.9969e-05
1.33494e-06
-3.0212e-05
1.39142e-06
-3.04489e-05
1.49172e-06
-3.06776e-05
1.6502e-06
-3.08903e-05
1.886e-06
-3.10682e-05
2.22341e-06
-3.11743e-05
2.69077e-06
-3.11372e-05
3.32734e-06
-3.07658e-05
4.17669e-06
5.1023e-06
-2.99936e-05
-4.34096e-07
2.27004e-06
-1.17341e-06
3.94356e-06
-1.98443e-06
4.34489e-06
-2.80681e-06
4.41046e-06
-3.62896e-06
4.41017e-06
-4.44868e-06
4.39745e-06
-5.26516e-06
4.38037e-06
-6.07776e-06
4.35994e-06
-6.88586e-06
4.33629e-06
-7.68885e-06
4.30942e-06
-8.48613e-06
4.27936e-06
-9.27708e-06
4.24614e-06
-1.00611e-05
4.20975e-06
-1.08376e-05
4.17023e-06
-1.1606e-05
4.1276e-06
-1.23658e-05
4.08189e-06
-1.31162e-05
4.03313e-06
-1.38568e-05
3.98134e-06
-1.4587e-05
3.92656e-06
-1.53063e-05
3.86883e-06
-1.6014e-05
3.8082e-06
-1.67097e-05
3.74472e-06
-1.73928e-05
3.67843e-06
-1.80628e-05
3.60939e-06
-1.87192e-05
3.53767e-06
-1.93615e-05
3.46334e-06
-1.99892e-05
3.38649e-06
-2.06019e-05
3.30719e-06
-2.1199e-05
3.22556e-06
-2.17803e-05
3.14171e-06
-2.23451e-05
3.05576e-06
-2.28933e-05
2.96788e-06
-2.34243e-05
2.87821e-06
-2.39379e-05
2.78697e-06
-2.44338e-05
2.69438e-06
-2.49117e-05
2.6007e-06
-2.53714e-05
2.50624e-06
-2.58127e-05
2.41135e-06
-2.62355e-05
2.31648e-06
-2.66398e-05
2.22213e-06
-2.70254e-05
2.12891e-06
-2.73926e-05
2.03756e-06
-2.77415e-05
1.94899e-06
-2.80723e-05
1.86428e-06
-2.83854e-05
1.78481e-06
-2.86812e-05
1.71225e-06
-2.89601e-05
1.64873e-06
-2.92227e-05
1.5969e-06
-2.94695e-05
1.56013e-06
-2.97006e-05
1.54271e-06
-2.99158e-05
1.55011e-06
-3.01137e-05
1.58929e-06
-3.0291e-05
1.66904e-06
-3.04411e-05
1.80032e-06
-3.05515e-05
1.99637e-06
-3.06001e-05
2.27207e-06
-3.05514e-05
2.64202e-06
-3.03434e-05
3.11934e-06
-2.98696e-05
3.70293e-06
4.31999e-06
-2.90873e-05
-4.3537e-07
2.70541e-06
-1.17761e-06
4.68579e-06
-1.99186e-06
5.15914e-06
-2.81756e-06
5.23615e-06
-3.64302e-06
5.23563e-06
-4.46602e-06
5.22045e-06
-5.28576e-06
5.20011e-06
-6.10161e-06
5.17579e-06
-6.91294e-06
5.14762e-06
-7.71914e-06
5.11563e-06
-8.51961e-06
5.07983e-06
-9.31374e-06
5.04026e-06
-1.01009e-05
4.99694e-06
-1.08806e-05
4.94988e-06
-1.16521e-05
4.89912e-06
-1.24149e-05
4.84469e-06
-1.31684e-05
4.78662e-06
-1.3912e-05
4.72496e-06
-1.46452e-05
4.65974e-06
-1.53674e-05
4.59101e-06
-1.6078e-05
4.51882e-06
-1.67765e-05
4.44323e-06
-1.74624e-05
4.3643e-06
-1.81351e-05
4.28209e-06
-1.87941e-05
4.19669e-06
-1.94389e-05
4.10818e-06
-2.00691e-05
4.01664e-06
-2.06841e-05
3.92219e-06
-2.12835e-05
3.82494e-06
-2.18668e-05
3.72502e-06
-2.24336e-05
3.62258e-06
-2.29835e-05
3.51779e-06
-2.35161e-05
3.41083e-06
-2.40311e-05
3.30194e-06
-2.45281e-05
3.19135e-06
-2.50067e-05
3.07937e-06
-2.54668e-05
2.96633e-06
-2.59081e-05
2.85263e-06
-2.63303e-05
2.73873e-06
-2.67334e-05
2.62519e-06
-2.71172e-05
2.51266e-06
-2.74815e-05
2.40191e-06
-2.78264e-05
2.29389e-06
-2.81518e-05
2.18973e-06
-2.84578e-05
2.09079e-06
-2.87443e-05
1.99876e-06
-2.90113e-05
1.91568e-06
-2.92585e-05
1.84408e-06
-2.94854e-05
1.78705e-06
-2.96911e-05
1.7484e-06
-2.98737e-05
1.73276e-06
-3.00302e-05
1.74577e-06
-3.01553e-05
1.79408e-06
-3.02403e-05
1.88534e-06
-3.02717e-05
2.02778e-06
-3.02288e-05
2.22915e-06
-3.00814e-05
2.49466e-06
-2.97862e-05
2.8241e-06
-2.92855e-05
3.20228e-06
3.58255e-06
-2.85481e-05
-4.37028e-07
3.14244e-06
-1.18265e-06
5.43142e-06
-2.0007e-06
5.97719e-06
-2.83029e-06
6.06573e-06
-3.65963e-06
6.06497e-06
-4.48651e-06
6.04732e-06
-5.3101e-06
6.02371e-06
-6.12979e-06
5.99547e-06
-6.94494e-06
5.96277e-06
-7.75494e-06
5.92563e-06
-8.55919e-06
5.88408e-06
-9.35708e-06
5.83815e-06
-1.0148e-05
5.78785e-06
-1.09313e-05
5.73323e-06
-1.17065e-05
5.6743e-06
-1.2473e-05
5.61112e-06
-1.32301e-05
5.54372e-06
-1.39772e-05
5.47213e-06
-1.47139e-05
5.39643e-06
-1.54395e-05
5.31664e-06
-1.61536e-05
5.23284e-06
-1.68554e-05
5.14508e-06
-1.75446e-05
5.05344e-06
-1.82205e-05
4.95799e-06
-1.88826e-05
4.85883e-06
-1.95304e-05
4.75603e-06
-2.01635e-05
4.64971e-06
-2.07813e-05
4.53999e-06
-2.13834e-05
4.42698e-06
-2.19692e-05
4.31085e-06
-2.25383e-05
4.19174e-06
-2.30904e-05
4.06985e-06
-2.3625e-05
3.94538e-06
-2.41416e-05
3.81858e-06
-2.46399e-05
3.68971e-06
-2.51197e-05
3.55908e-06
-2.55804e-05
3.42706e-06
-2.60218e-05
3.29407e-06
-2.64437e-05
3.16059e-06
-2.68457e-05
3.02719e-06
-2.72276e-05
2.89455e-06
-2.75891e-05
2.76345e-06
-2.79301e-05
2.63483e-06
-2.82501e-05
2.50981e-06
-2.85491e-05
2.38971e-06
-2.88264e-05
2.27611e-06
-2.90817e-05
2.17092e-06
-2.9314e-05
2.07641e-06
-2.95222e-05
1.99526e-06
-2.97045e-05
1.93069e-06
-2.98581e-05
1.8864e-06
-2.9979e-05
1.86665e-06
-3.0061e-05
1.87613e-06
-3.00954e-05
1.91969e-06
-3.00694e-05
2.00175e-06
-2.99655e-05
2.12527e-06
-2.97607e-05
2.2899e-06
-2.94261e-05
2.4895e-06
-2.89305e-05
2.70662e-06
2.90858e-06
-2.82565e-05
-4.39018e-07
3.58145e-06
-1.18856e-06
6.18096e-06
-2.01101e-06
6.79964e-06
-2.84508e-06
6.89981e-06
-3.67892e-06
6.89881e-06
-4.51028e-06
6.87868e-06
-5.33834e-06
6.85177e-06
-6.16248e-06
6.8196e-06
-6.98206e-06
6.78235e-06
-7.79647e-06
6.74005e-06
-8.60511e-06
6.69272e-06
-9.40735e-06
6.64039e-06
-1.02026e-05
6.5831e-06
-1.09902e-05
6.52087e-06
-1.17697e-05
6.45375e-06
-1.25403e-05
6.38177e-06
-1.33016e-05
6.30498e-06
-1.40529e-05
6.22344e-06
-1.47937e-05
6.13719e-06
-1.55233e-05
6.04629e-06
-1.62413e-05
5.95081e-06
-1.6947e-05
5.85081e-06
-1.764e-05
5.74639e-06
-1.83196e-05
5.63761e-06
-1.89853e-05
5.52458e-06
-1.96367e-05
5.4074e-06
-2.02732e-05
5.28618e-06
-2.08942e-05
5.16105e-06
-2.14994e-05
5.03215e-06
-2.20882e-05
4.89964e-06
-2.26601e-05
4.76368e-06
-2.32148e-05
4.62448e-06
-2.37516e-05
4.48226e-06
-2.42703e-05
4.33727e-06
-2.47704e-05
4.18979e-06
-2.52515e-05
4.04016e-06
-2.57132e-05
3.88874e-06
-2.61551e-05
3.73596e-06
-2.65768e-05
3.58232e-06
-2.6978e-05
3.42839e-06
-2.73583e-05
3.27484e-06
-2.77173e-05
3.12244e-06
-2.80545e-05
2.9721e-06
-2.83696e-05
2.82487e-06
-2.86619e-05
2.68198e-06
-2.89307e-05
2.5449e-06
-2.91751e-05
2.41531e-06
-2.93938e-05
2.29516e-06
-2.95852e-05
2.1867e-06
-2.97471e-05
2.0925e-06
-2.9876e-05
2.01537e-06
-2.99677e-05
1.95833e-06
-3.0016e-05
1.92443e-06
-3.00127e-05
1.91635e-06
-2.99468e-05
1.9359e-06
-2.98046e-05
1.98305e-06
-2.95693e-05
2.05461e-06
-2.92222e-05
2.14241e-06
-2.87465e-05
2.23091e-06
2.29613e-06
-2.81341e-05
-4.41318e-07
4.02277e-06
-1.19532e-06
6.93496e-06
-2.02277e-06
7.62709e-06
-2.86195e-06
7.73898e-06
-3.7009e-06
7.73776e-06
-4.53736e-06
7.71515e-06
-5.37051e-06
7.68493e-06
-6.19972e-06
7.64881e-06
-7.02435e-06
7.60698e-06
-7.84378e-06
7.55948e-06
-8.65741e-06
7.50635e-06
-9.46462e-06
7.4476e-06
-1.02648e-05
7.38327e-06
-1.10573e-05
7.31341e-06
-1.18416e-05
7.23804e-06
-1.26171e-05
7.15723e-06
-1.33831e-05
7.07101e-06
-1.41391e-05
6.97945e-06
-1.48845e-05
6.88259e-06
-1.56188e-05
6.78051e-06
-1.63412e-05
6.67328e-06
-1.70514e-05
6.56098e-06
-1.77487e-05
6.44368e-06
-1.84325e-05
6.32148e-06
-1.91025e-05
6.19449e-06
-1.97579e-05
6.06281e-06
-2.03982e-05
5.92656e-06
-2.10231e-05
5.78589e-06
-2.16318e-05
5.64093e-06
-2.22241e-05
5.49185e-06
-2.27992e-05
5.33885e-06
-2.33569e-05
5.18212e-06
-2.38965e-05
5.02189e-06
-2.44177e-05
4.85843e-06
-2.49199e-05
4.69202e-06
-2.54027e-05
4.523e-06
-2.58657e-05
4.35175e-06
-2.63085e-05
4.17869e-06
-2.67305e-05
4.00431e-06
-2.71312e-05
3.82918e-06
-2.75103e-05
3.65393e-06
-2.78672e-05
3.47931e-06
-2.82013e-05
3.30617e-06
-2.85119e-05
3.13548e-06
-2.87983e-05
2.96837e-06
-2.90595e-05
2.8061e-06
-2.92943e-05
2.65013e-06
-2.95012e-05
2.5021e-06
-2.96783e-05
2.3638e-06
-2.9823e-05
2.23718e-06
-2.99319e-05
2.12428e-06
-3.00007e-05
2.0271e-06
-3.00236e-05
1.94737e-06
-2.99935e-05
1.88626e-06
-2.99015e-05
1.84388e-06
-2.9737e-05
1.81854e-06
-2.94882e-05
1.80585e-06
-2.91435e-05
1.79763e-06
-2.86937e-05
1.78117e-06
1.73859e-06
-2.81362e-05
-4.43917e-07
4.46669e-06
-1.20292e-06
7.69396e-06
-2.03599e-06
8.46017e-06
-2.8809e-06
8.58389e-06
-3.72559e-06
8.58245e-06
-4.56777e-06
8.55733e-06
-5.40664e-06
8.52379e-06
-6.24153e-06
8.4837e-06
-7.07182e-06
8.43728e-06
-7.8969e-06
8.38456e-06
-8.71614e-06
8.32558e-06
-9.52892e-06
8.26038e-06
-1.03346e-05
8.18898e-06
-1.11327e-05
8.11144e-06
-1.19224e-05
8.02779e-06
-1.27033e-05
7.93809e-06
-1.34746e-05
7.84238e-06
-1.42359e-05
7.74074e-06
-1.49866e-05
7.63322e-06
-1.57259e-05
7.51989e-06
-1.64535e-05
7.40083e-06
-1.71686e-05
7.27612e-06
-1.78708e-05
7.14586e-06
-1.85595e-05
7.01014e-06
-1.92341e-05
6.86907e-06
-1.9894e-05
6.72277e-06
-2.05388e-05
6.57136e-06
-2.11679e-05
6.41499e-06
-2.17808e-05
6.25381e-06
-2.2377e-05
6.088e-06
-2.29558e-05
5.91774e-06
-2.3517e-05
5.74324e-06
-2.40598e-05
5.56475e-06
-2.45839e-05
5.38252e-06
-2.50887e-05
5.19684e-06
-2.55738e-05
5.00806e-06
-2.60386e-05
4.81654e-06
-2.64826e-05
4.6227e-06
-2.69053e-05
4.42702e-06
-2.73062e-05
4.23003e-06
-2.76846e-05
4.03235e-06
-2.80399e-05
3.83466e-06
-2.83715e-05
3.63774e-06
-2.86785e-05
3.44247e-06
-2.89599e-05
3.24983e-06
-2.92148e-05
3.06093e-06
-2.94416e-05
2.87696e-06
-2.96388e-05
2.69925e-06
-2.98041e-05
2.52919e-06
-2.99352e-05
2.36819e-06
-3.00285e-05
2.21763e-06
-3.00801e-05
2.07869e-06
-3.00849e-05
1.95218e-06
-3.00369e-05
1.83824e-06
-2.9929e-05
1.73596e-06
-2.97533e-05
1.64287e-06
-2.95017e-05
1.5543e-06
-2.91672e-05
1.46307e-06
-2.87448e-05
1.35885e-06
1.22845e-06
-2.82347e-05
-4.46811e-07
4.9135e-06
-1.21137e-06
8.45852e-06
-2.05068e-06
9.29948e-06
-2.90194e-06
9.43515e-06
-3.75299e-06
9.43351e-06
-4.60153e-06
9.40587e-06
-5.44673e-06
9.36899e-06
-6.28794e-06
9.3249e-06
-7.12452e-06
9.27386e-06
-7.95585e-06
9.21589e-06
-8.78131e-06
9.15105e-06
-9.60028e-06
9.07935e-06
-1.04121e-05
9.00084e-06
-1.12163e-05
8.91557e-06
-1.20121e-05
8.82359e-06
-1.27989e-05
8.72494e-06
-1.35762e-05
8.61969e-06
-1.43434e-05
8.5079e-06
-1.50998e-05
8.38964e-06
-1.58449e-05
8.26499e-06
-1.65781e-05
8.13402e-06
-1.72988e-05
7.99683e-06
-1.80065e-05
7.8535e-06
-1.87005e-05
7.70415e-06
-1.93803e-05
7.54889e-06
-2.00454e-05
7.38783e-06
-2.06951e-05
7.22112e-06
-2.1329e-05
7.0489e-06
-2.19465e-05
6.87132e-06
-2.25471e-05
6.68858e-06
-2.31302e-05
6.50085e-06
-2.36953e-05
6.30835e-06
-2.42419e-05
6.11133e-06
-2.47694e-05
5.91003e-06
-2.52773e-05
5.70476e-06
-2.57651e-05
5.49584e-06
-2.62322e-05
5.28363e-06
-2.6678e-05
5.06853e-06
-2.7102e-05
4.85101e-06
-2.75036e-05
4.63155e-06
-2.7882e-05
4.41074e-06
-2.82365e-05
4.18919e-06
-2.85664e-05
3.96762e-06
-2.88707e-05
3.74678e-06
-2.91484e-05
3.52752e-06
-2.93982e-05
3.31078e-06
-2.96188e-05
3.09751e-06
-2.98083e-05
2.88876e-06
-2.99646e-05
2.68555e-06
-3.00853e-05
2.48885e-06
-3.01672e-05
2.29952e-06
-3.02067e-05
2.11815e-06
-3.01994e-05
1.94489e-06
-3.01403e-05
1.77923e-06
-3.00241e-05
1.61973e-06
-2.98449e-05
1.46364e-06
-2.95972e-05
1.30665e-06
-2.92768e-05
1.14259e-06
-2.88812e-05
9.63282e-07
7.58992e-07
-2.84117e-05
-4.49997e-07
5.3635e-06
-1.22067e-06
9.22919e-06
-2.06684e-06
1.01456e-05
-2.92509e-06
1.02934e-05
-3.78313e-06
1.02916e-05
-4.63866e-06
1.02614e-05
-5.49082e-06
1.02211e-05
-6.33896e-06
1.0173e-05
-7.18246e-06
1.01174e-05
-8.02067e-06
1.00541e-05
-8.85298e-06
9.98335e-06
-9.67876e-06
9.90512e-06
-1.04974e-05
9.81946e-06
-1.13082e-05
9.72642e-06
-1.21107e-05
9.62605e-06
-1.29041e-05
9.5184e-06
-1.3688e-05
9.40354e-06
-1.44616e-05
9.28154e-06
-1.52244e-05
9.15246e-06
-1.59759e-05
9.0164e-06
-1.67153e-05
8.87343e-06
-1.74421e-05
8.72366e-06
-1.81558e-05
8.56716e-06
-1.88557e-05
8.40407e-06
-1.95413e-05
8.23449e-06
-2.0212e-05
8.05855e-06
-2.08672e-05
7.87638e-06
-2.15065e-05
7.68815e-06
-2.21292e-05
7.494e-06
-2.27347e-05
7.29413e-06
-2.33226e-05
7.08872e-06
-2.38922e-05
6.87798e-06
-2.44431e-05
6.66216e-06
-2.49745e-05
6.44151e-06
-2.54861e-05
6.21632e-06
-2.59772e-05
5.98689e-06
-2.64471e-05
5.75358e-06
-2.68954e-05
5.51678e-06
-2.73212e-05
5.2769e-06
-2.77241e-05
5.03441e-06
-2.81032e-05
4.78984e-06
-2.84577e-05
4.54374e-06
-2.87869e-05
4.29672e-06
-2.90896e-05
4.04947e-06
-2.93647e-05
3.80269e-06
-2.96111e-05
3.55713e-06
-2.98271e-05
3.31356e-06
-3.00111e-05
3.07276e-06
-3.0161e-05
2.83546e-06
-3.02744e-05
2.60227e-06
-3.03486e-05
2.37366e-06
-3.03802e-05
2.14979e-06
-3.03657e-05
1.93038e-06
-3.03011e-05
1.71457e-06
-3.0182e-05
1.5007e-06
-3.00045e-05
1.28609e-06
-2.97647e-05
1.0669e-06
-2.94601e-05
8.37982e-07
-2.90898e-05
5.92955e-07
3.24596e-07
-2.86554e-05
-4.53476e-07
5.81698e-06
-1.23082e-06
1.00065e-05
-2.08447e-06
1.09993e-05
-2.95034e-06
1.11593e-05
-3.81602e-06
1.11572e-05
-4.67916e-06
1.11245e-05
-5.53892e-06
1.10809e-05
-6.39464e-06
1.10288e-05
-7.24568e-06
1.09684e-05
-8.0914e-06
1.08998e-05
-8.93118e-06
1.08231e-05
-9.76438e-06
1.07383e-05
-1.05904e-05
1.06455e-05
-1.14086e-05
1.05446e-05
-1.22183e-05
1.04358e-05
-1.30189e-05
1.03191e-05
-1.38099e-05
1.01945e-05
-1.45906e-05
1.00622e-05
-1.53604e-05
9.92227e-06
-1.61188e-05
9.77472e-06
-1.6865e-05
9.61966e-06
-1.75985e-05
9.45719e-06
-1.83188e-05
9.28743e-06
-1.90252e-05
9.11047e-06
-1.97171e-05
8.92644e-06
-2.03941e-05
8.73548e-06
-2.10554e-05
8.53771e-06
-2.17005e-05
8.3333e-06
-2.23289e-05
8.12241e-06
-2.294e-05
7.90521e-06
-2.35332e-05
7.6819e-06
-2.41079e-05
7.45269e-06
-2.46636e-05
7.21782e-06
-2.51996e-05
6.97752e-06
-2.57154e-05
6.73209e-06
-2.62103e-05
6.48181e-06
-2.66837e-05
6.22702e-06
-2.7135e-05
5.96808e-06
-2.75635e-05
5.70538e-06
-2.79684e-05
5.43935e-06
-2.8349e-05
5.17044e-06
-2.87045e-05
4.89917e-06
-2.90338e-05
4.62606e-06
-2.9336e-05
4.35168e-06
-2.961e-05
4.07663e-06
-2.98543e-05
3.80149e-06
-3.00676e-05
3.52686e-06
-3.02482e-05
3.25331e-06
-3.0394e-05
2.98132e-06
-3.0503e-05
2.71124e-06
-3.05726e-05
2.44325e-06
-3.06e-05
2.17721e-06
-3.05822e-05
1.9126e-06
-3.05161e-05
1.64839e-06
-3.03983e-05
1.3829e-06
-3.02258e-05
1.11367e-06
-2.99963e-05
8.37395e-07
-2.97082e-05
5.49872e-07
-2.93615e-05
2.46187e-07
-7.94026e-08
-2.89575e-05
-4.57246e-07
6.27422e-06
-1.24182e-06
1.07911e-05
-2.10358e-06
1.18611e-05
-2.97772e-06
1.20334e-05
-3.85167e-06
1.20312e-05
-4.72307e-06
1.19959e-05
-5.59106e-06
1.19489e-05
-6.45499e-06
1.18927e-05
-7.3142e-06
1.18276e-05
-8.16807e-06
1.17537e-05
-9.01595e-06
1.1671e-05
-9.85721e-06
1.15796e-05
-1.06912e-05
1.14795e-05
-1.15173e-05
1.13707e-05
-1.2335e-05
1.12534e-05
-1.31434e-05
1.11275e-05
-1.39422e-05
1.09933e-05
-1.47305e-05
1.08506e-05
-1.55079e-05
1.06997e-05
-1.62738e-05
1.05405e-05
-1.70274e-05
1.03733e-05
-1.77682e-05
1.0198e-05
-1.84957e-05
1.00149e-05
-1.92091e-05
9.82393e-06
-1.9908e-05
9.62533e-06
-2.05917e-05
9.4192e-06
-2.12597e-05
9.20568e-06
-2.19113e-05
8.98493e-06
-2.2546e-05
8.75711e-06
-2.31632e-05
8.52239e-06
-2.37623e-05
8.28098e-06
-2.43427e-05
8.03306e-06
-2.49037e-05
7.77888e-06
-2.54449e-05
7.51867e-06
-2.59655e-05
7.25269e-06
-2.64649e-05
6.98123e-06
-2.69425e-05
6.7046e-06
-2.73975e-05
6.42313e-06
-2.78293e-05
6.13718e-06
-2.82371e-05
5.84713e-06
-2.86201e-05
5.55341e-06
-2.89773e-05
5.25643e-06
-2.93079e-05
4.95666e-06
-2.96108e-05
4.65458e-06
-2.98849e-05
4.35065e-06
-3.01287e-05
4.04535e-06
-3.0341e-05
3.73913e-06
-3.052e-05
3.43236e-06
-3.06641e-05
3.12535e-06
-3.07711e-05
2.81826e-06
-3.08389e-05
2.51104e-06
-3.08651e-05
2.2034e-06
-3.08472e-05
1.89469e-06
-3.07826e-05
1.58383e-06
-3.06689e-05
1.26922e-06
-3.05039e-05
9.48706e-07
-3.0286e-05
6.19496e-07
-3.00145e-05
2.78292e-07
-2.9689e-05
-7.92956e-08
-4.56915e-07
-2.93115e-05
-4.61308e-07
6.73553e-06
-1.25368e-06
1.15835e-05
-2.12419e-06
1.27316e-05
-3.00723e-06
1.29165e-05
-3.8901e-06
1.29141e-05
-4.7704e-06
1.28762e-05
-5.64727e-06
1.28258e-05
-6.52005e-06
1.27655e-05
-7.38808e-06
1.26956e-05
-8.25073e-06
1.26163e-05
-9.10734e-06
1.25276e-05
-9.95728e-06
1.24295e-05
-1.07999e-05
1.23221e-05
-1.16346e-05
1.22054e-05
-1.24607e-05
1.20795e-05
-1.32777e-05
1.19445e-05
-1.40848e-05
1.18004e-05
-1.48814e-05
1.16473e-05
-1.5667e-05
1.14853e-05
-1.64409e-05
1.13144e-05
-1.72026e-05
1.11349e-05
-1.79513e-05
1.09468e-05
-1.86865e-05
1.07501e-05
-1.94076e-05
1.05451e-05
-2.01141e-05
1.03317e-05
-2.08052e-05
1.01103e-05
-2.14804e-05
9.88089e-06
-2.21391e-05
9.64363e-06
-2.27806e-05
9.3987e-06
-2.34045e-05
9.14627e-06
-2.40101e-05
8.88654e-06
-2.45967e-05
8.6197e-06
-2.51638e-05
8.34596e-06
-2.57107e-05
8.06557e-06
-2.62368e-05
7.77876e-06
-2.67414e-05
7.48582e-06
-2.72238e-05
7.18701e-06
-2.76833e-05
6.88265e-06
-2.81192e-05
6.57307e-06
-2.85306e-05
6.2586e-06
-2.89169e-05
5.93961e-06
-2.92769e-05
5.61648e-06
-2.96098e-05
5.28958e-06
-2.99146e-05
4.95932e-06
-3.019e-05
4.62606e-06
-3.04348e-05
4.29017e-06
-3.06476e-05
3.95197e-06
-3.0827e-05
3.61172e-06
-3.09712e-05
3.26955e-06
-3.10784e-05
2.9255e-06
-3.11468e-05
2.5794e-06
-3.11742e-05
2.23085e-06
-3.11587e-05
1.87915e-06
-3.10981e-05
1.52327e-06
-3.09907e-05
1.16175e-06
-3.08347e-05
7.92735e-07
-3.06291e-05
4.13929e-07
-3.03735e-05
2.26615e-08
-3.00679e-05
-3.84933e-07
-8.107e-07
-2.97141e-05
-4.65663e-07
7.20119e-06
-1.26639e-06
1.23842e-05
-2.14629e-06
1.36115e-05
-3.03889e-06
1.38091e-05
-3.93133e-06
1.38065e-05
-4.82118e-06
1.37661e-05
-5.70758e-06
1.37122e-05
-6.58985e-06
1.36477e-05
-7.46735e-06
1.35731e-05
-8.33941e-06
1.34884e-05
-9.2054e-06
1.33936e-05
-1.00647e-05
1.32888e-05
-1.09166e-05
1.3174e-05
-1.17605e-05
1.30493e-05
-1.25957e-05
1.29148e-05
-1.34217e-05
1.27705e-05
-1.42378e-05
1.26164e-05
-1.50434e-05
1.24528e-05
-1.58378e-05
1.22797e-05
-1.66204e-05
1.20971e-05
-1.73906e-05
1.19051e-05
-1.81479e-05
1.1704e-05
-1.88915e-05
1.14937e-05
-1.96209e-05
1.12744e-05
-2.03354e-05
1.10463e-05
-2.10345e-05
1.08094e-05
-2.17175e-05
1.05639e-05
-2.23839e-05
1.031e-05
-2.3033e-05
1.00478e-05
-2.36641e-05
9.77745e-06
-2.42768e-05
9.4992e-06
-2.48703e-05
9.21321e-06
-2.54441e-05
8.9197e-06
-2.59974e-05
8.61887e-06
-2.65296e-05
8.31098e-06
-2.704e-05
7.99625e-06
-2.7528e-05
7.67497e-06
-2.79927e-05
7.3474e-06
-2.84335e-05
7.01383e-06
-2.88495e-05
6.67458e-06
-2.92398e-05
6.32996e-06
-2.96036e-05
5.98028e-06
-2.99399e-05
5.62588e-06
-3.02476e-05
5.26706e-06
-3.05257e-05
4.90412e-06
-3.07729e-05
4.53733e-06
-3.09878e-05
4.16692e-06
-3.11691e-05
3.79303e-06
-3.13153e-05
3.41572e-06
-3.14247e-05
3.0349e-06
-3.14956e-05
2.65034e-06
-3.15264e-05
2.2616e-06
-3.15152e-05
1.86799e-06
-3.14605e-05
1.46855e-06
-3.13608e-05
1.06202e-06
-3.12148e-05
6.46813e-07
-3.10221e-05
2.21185e-07
-3.07816e-05
-2.17865e-07
-3.04946e-05
-6.71906e-07
-1.14319e-06
-3.01621e-05
-4.70311e-07
7.6715e-06
-1.27998e-06
1.31939e-05
-2.1699e-06
1.45014e-05
-3.07271e-06
1.47119e-05
-3.97537e-06
1.47092e-05
-4.87543e-06
1.46661e-05
-5.77201e-06
1.46088e-05
-6.66443e-06
1.45402e-05
-7.55204e-06
1.44607e-05
-8.43417e-06
1.43705e-05
-9.31018e-06
1.42696e-05
-1.01794e-05
1.4158e-05
-1.10412e-05
1.40358e-05
-1.1895e-05
1.39031e-05
-1.274e-05
1.37598e-05
-1.35757e-05
1.36061e-05
-1.44014e-05
1.34421e-05
-1.52164e-05
1.32679e-05
-1.60203e-05
1.30835e-05
-1.68122e-05
1.2889e-05
-1.75917e-05
1.26846e-05
-1.83581e-05
1.24703e-05
-1.91107e-05
1.22463e-05
-1.98489e-05
1.20127e-05
-2.05722e-05
1.17696e-05
-2.12799e-05
1.15171e-05
-2.19713e-05
1.12554e-05
-2.2646e-05
1.09846e-05
-2.33032e-05
1.0705e-05
-2.39423e-05
1.04166e-05
-2.45627e-05
1.01196e-05
-2.51637e-05
9.81426e-06
-2.57448e-05
9.50074e-06
-2.63051e-05
9.17925e-06
-2.68442e-05
8.85001e-06
-2.73611e-05
8.51324e-06
-2.78554e-05
8.1692e-06
-2.83261e-05
7.81813e-06
-2.87726e-05
7.46028e-06
-2.91939e-05
7.09594e-06
-2.95893e-05
6.72536e-06
-2.99579e-05
6.34882e-06
-3.02986e-05
5.9666e-06
-3.06105e-05
5.57893e-06
-3.08924e-05
5.18605e-06
-3.11432e-05
4.78815e-06
-3.13617e-05
4.38539e-06
-3.15465e-05
3.97783e-06
-3.16962e-05
3.56545e-06
-3.18094e-05
3.14812e-06
-3.18847e-05
2.72557e-06
-3.19204e-05
2.29735e-06
-3.19152e-05
1.86281e-06
-3.18678e-05
1.4211e-06
-3.17769e-05
9.71147e-07
-3.16417e-05
5.11631e-07
-3.14616e-05
4.1094e-08
-3.12363e-05
-4.43188e-07
-3.09666e-05
-9.41643e-07
-1.45639e-06
-3.06534e-05
-4.75252e-07
8.14675e-06
-1.29443e-06
1.4013e-05
-2.19502e-06
1.5402e-05
-3.10871e-06
1.56256e-05
-4.02226e-06
1.56227e-05
-4.93318e-06
1.55771e-05
-5.8406e-06
1.55162e-05
-6.74383e-06
1.54434e-05
-7.6422e-06
1.53591e-05
-8.53505e-06
1.52634e-05
-9.42173e-06
1.51563e-05
-1.03016e-05
1.50379e-05
-1.11739e-05
1.49082e-05
-1.20381e-05
1.47673e-05
-1.28936e-05
1.46152e-05
-1.37396e-05
1.44522e-05
-1.45755e-05
1.42781e-05
-1.54008e-05
1.40931e-05
-1.62147e-05
1.38974e-05
-1.70166e-05
1.3691e-05
-1.78059e-05
1.34739e-05
-1.8582e-05
1.32464e-05
-1.93442e-05
1.30085e-05
-2.00919e-05
1.27604e-05
-2.08246e-05
1.25022e-05
-2.15415e-05
1.2234e-05
-2.2242e-05
1.19559e-05
-2.29255e-05
1.16682e-05
-2.35915e-05
1.13709e-05
-2.42391e-05
1.10642e-05
-2.48679e-05
1.07484e-05
-2.54771e-05
1.04235e-05
-2.60661e-05
1.00897e-05
-2.66342e-05
9.74737e-06
-2.71808e-05
9.39656e-06
-2.77051e-05
9.03751e-06
-2.82063e-05
8.67046e-06
-2.86838e-05
8.29562e-06
-2.91368e-05
7.91323e-06
-2.95643e-05
7.52352e-06
-2.99657e-05
7.12672e-06
-3.034e-05
6.72307e-06
-3.06861e-05
6.31277e-06
-3.10032e-05
5.89603e-06
-3.12902e-05
5.47302e-06
-3.15459e-05
5.04388e-06
-3.17692e-05
4.60869e-06
-3.19589e-05
4.16749e-06
-3.21136e-05
3.72019e-06
-3.22322e-05
3.26665e-06
-3.23131e-05
2.80657e-06
-3.23553e-05
2.33952e-06
-3.23574e-05
1.86493e-06
-3.23184e-05
1.38206e-06
-3.22373e-05
8.90019e-07
-3.21134e-05
3.87785e-07
-3.19459e-05
-1.26462e-07
-3.17353e-05
-6.53776e-07
-3.14818e-05
-1.19512e-06
-1.75188e-06
-3.11863e-05
-4.80486e-07
8.62724e-06
-1.30975e-06
1.48423e-05
-2.22167e-06
1.63139e-05
-3.1469e-06
1.65508e-05
-4.072e-06
1.65478e-05
-4.99446e-06
1.64995e-05
-5.91338e-06
1.64351e-05
-6.82808e-06
1.63581e-05
-7.73787e-06
1.62689e-05
-8.6421e-06
1.61676e-05
-9.5401e-06
1.60543e-05
-1.04312e-05
1.5929e-05
-1.13148e-05
1.57917e-05
-1.21901e-05
1.56426e-05
-1.30566e-05
1.54817e-05
-1.39136e-05
1.53091e-05
-1.47604e-05
1.51249e-05
-1.55965e-05
1.49292e-05
-1.6421e-05
1.4722e-05
-1.72335e-05
1.45035e-05
-1.80333e-05
1.42737e-05
-1.88198e-05
1.40329e-05
-1.95922e-05
1.3781e-05
-2.03501e-05
1.35183e-05
-2.10927e-05
1.32448e-05
-2.18194e-05
1.29607e-05
-2.25296e-05
1.26661e-05
-2.32227e-05
1.23612e-05
-2.3898e-05
1.20462e-05
-2.45549e-05
1.17211e-05
-2.51927e-05
1.13862e-05
-2.58107e-05
1.10415e-05
-2.64084e-05
1.06874e-05
-2.69849e-05
1.03239e-05
-2.75397e-05
9.95133e-06
-2.8072e-05
9.56979e-06
-2.8581e-05
9.17951e-06
-2.90661e-05
8.78068e-06
-2.95263e-05
8.37351e-06
-2.9961e-05
7.9582e-06
-3.03692e-05
7.53495e-06
-3.07501e-05