/*--------------------------------*- C++ -*----------------------------------*\
  =========                 |
  \\      /  F ield         | OpenFOAM: The Open Source CFD Toolbox
   \\    /   O peration     | Website:  https://openfoam.org
    \\  /    A nd           | Version:  8
     \\/     M anipulation  |
\*---------------------------------------------------------------------------*/
FoamFile
{
    version     2.0;
    format      ascii;
    class       volScalarField;
    location    "0.17";
    object      p;
}
// * * * * * * * * * * * * * * * * * * * * * * * * * * * * * * * * * * * * * //

dimensions      [0 2 -2 0 0 0 0];

internalField   nonuniform List<scalar> 
400
(
-1.18375e-07
-0.0058167
-0.0129441
-0.0183912
-0.0204069
-0.0182155
-0.0117575
-0.00147798
0.0118292
0.0271249
0.0432034
0.0587665
0.0725093
0.0832305
0.0899716
0.0921887
0.0899558
0.0841847
0.0768369
0.0710365
0.00576403
-0.000225332
-0.00580933
-0.00954688
-0.0106032
-0.00843856
-0.0029791
0.00545989
0.016282
0.0286832
0.0417133
0.0543421
0.0655367
0.0743565
0.080066
0.0822639
0.0810309
0.0770152
0.071241
0.0652981
0.013302
0.00501684
-0.00101088
-0.00443691
-0.00528545
-0.00327677
0.00158755
0.00900935
0.0184791
0.0293206
0.0407307
0.0518292
0.0617234
0.0695884
0.0747587
0.0768326
0.0758022
0.0720537
0.0657798
0.0575306
0.0200904
0.00866961
0.00120057
-0.00269126
-0.00374253
-0.00190489
0.0027112
0.0097628
0.0187559
0.029067
0.0399599
0.050618
0.0601935
0.0678745
0.072962
0.0749636
0.0737343
0.069432
0.0615844
0.0501102
0.0244394
0.00973998
0.000557144
-0.00401647
-0.0053284
-0.00353156
0.00115133
0.00831111
0.0174377
0.0279233
0.0390569
0.0500393
0.060016
0.0681309
0.0735929
0.0757676
0.0743453
0.069273
0.0595127
0.0445562
0.0251083
0.00711545
-0.00383746
-0.00908939
-0.0105401
-0.00852512
-0.00338002
0.00440756
0.0142922
0.0256576
0.0377913
0.0498791
0.0610221
0.0702763
0.0767084
0.0794937
0.0781217
0.0723223
0.0605295
0.041917
0.0210245
-0.000292714
-0.0129682
-0.0187402
-0.020056
-0.0174366
-0.0113382
-0.00233702
0.00897488
0.0219613
0.0358943
0.0499277
0.063094
0.074326
0.0825028
0.0865526
0.085709
0.0794398
0.0656106
0.0431027
0.0110814
-0.0136391
-0.0279033
-0.0338804
-0.0346249
-0.030875
-0.0232267
-0.0123557
0.0010969
0.0164773
0.0330459
0.0499258
0.0660738
0.0802788
0.0911888
0.0974192
0.0978634
0.0916313
0.0758838
0.0491481
-0.00601614
-0.034274
-0.04989
-0.055568
-0.0551048
-0.0495251
-0.0395998
-0.0261157
-0.00975636
0.00882553
0.0289038
0.0495951
0.069797
0.0881518
0.103043
0.112696
0.115548
0.110189
0.0928165
0.0614414
-0.0318915
-0.0638681
-0.0804275
-0.0850188
-0.0824272
-0.0740812
-0.0609794
-0.0440307
-0.023942
-0.00132517
0.0231577
0.0486718
0.0741039
0.0979773
0.118398
0.133126
0.13999
0.136816
0.118416
0.0819614
-0.0686886
-0.104579
-0.121346
-0.123595
-0.117516
-0.105123
-0.0877099
-0.0663124
-0.0416198
-0.0141359
0.0156258
0.0469719
0.0788713
0.109805
0.137631
0.15959
0.172731
0.173777
0.155487
0.113598
-0.119416
-0.15932
-0.174911
-0.172757
-0.161144
-0.142921
-0.119746
-0.0927592
-0.062555
-0.0294223
0.00639903
0.0444975
0.0840752
0.123718
0.161146
0.193092
0.215675
0.224076
0.208008
0.160663
-0.188646
-0.232196
-0.243933
-0.233947
-0.213689
-0.187146
-0.156359
-0.122482
-0.0858738
-0.0464447
-0.00398647
0.0415644
0.0898629
0.139844
0.189328
0.234694
0.271081
0.291665
0.281694
0.229818
-0.284009
-0.329261
-0.331832
-0.308283
-0.274707
-0.236435
-0.195754
-0.153594
-0.109818
-0.0637196
-0.0144119
0.0388863
0.0965712
0.158286
0.222377
0.285287
0.3414
0.381576
0.384865
0.331898
-0.419381
-0.459645
-0.442365
-0.395803
-0.342134
-0.287742
-0.234613
-0.18292
-0.131593
-0.0789648
-0.0231937
0.0374917
0.104562
0.178838
0.259852
0.344957
0.42861
0.499704
0.529641
0.485485
-0.62062
-0.636748
-0.578709
-0.494212
-0.411255
-0.335671
-0.267788
-0.205978
-0.147529
-0.0893712
-0.028414
0.0383559
0.113806
0.20046
0.299952
0.411995
0.533004
0.651767
0.732754
0.722516
-0.935995
-0.878541
-0.741756
-0.597958
-0.474419
-0.372688
-0.288891
-0.217776
-0.153958
-0.0924629
-0.0287144
0.0416949
0.123254
0.220697
0.338893
0.482108
0.651922
0.841256
1.01524
1.09761
-1.47599
-1.20707
-0.920485
-0.691308
-0.517309
-0.38757
-0.290083
-0.213354
-0.148135
-0.0872221
-0.0245838
0.0454463
0.128915
0.233034
0.36705
0.542592
0.771106
1.05917
1.40368
1.72965
-2.536
-1.63346
-1.04466
-0.710659
-0.495627
-0.352043
-0.254499
-0.183565
-0.126161
-0.0735957
-0.0192822
0.0427593
0.11916
0.218697
0.354689
0.547787
0.826035
1.23675
1.91469
2.92009
-4.35998
-2.04709
-0.973975
-0.56313
-0.357969
-0.240304
-0.170243
-0.123873
-0.0875415
-0.0535436
-0.0166621
0.0276703
0.084632
0.161769
0.272468
0.442135
0.718139
1.22611
2.41339
4.84155
)
;

boundaryField
{
    movingWall
    {
        type            zeroGradient;
    }
    fixedWalls
    {
        type            zeroGradient;
    }
    frontAndBack
    {
        type            empty;
    }
}


// ************************************************************************* //
