/*--------------------------------*- C++ -*----------------------------------*\
  =========                 |
  \\      /  F ield         | OpenFOAM: The Open Source CFD Toolbox
   \\    /   O peration     | Website:  https://openfoam.org
    \\  /    A nd           | Version:  8
     \\/     M anipulation  |
\*---------------------------------------------------------------------------*/
FoamFile
{
    version     2.0;
    format      ascii;
    class       surfaceScalarField;
    location    "0.17";
    object      phi;
}
// * * * * * * * * * * * * * * * * * * * * * * * * * * * * * * * * * * * * * //

dimensions      [0 3 -1 0 0 0 0];

internalField   nonuniform List<scalar> 
760
(
1.4225e-08
-1.42249e-08
-2.21387e-08
3.63643e-08
-1.14044e-07
9.1904e-08
-2.45053e-07
1.3101e-07
-3.95421e-07
1.50367e-07
-5.46459e-07
1.51037e-07
-6.82082e-07
1.35623e-07
-7.894e-07
1.07318e-07
-8.58851e-07
6.94511e-08
-8.84261e-07
2.54104e-08
-8.62989e-07
-2.1272e-08
-7.96176e-07
-6.68124e-08
-6.8905e-07
-1.07126e-07
-5.51156e-07
-1.37894e-07
-3.96363e-07
-1.54793e-07
-2.42394e-07
-1.53969e-07
-1.0956e-07
-1.32834e-07
-1.83593e-08
-9.12003e-08
1.56681e-08
-3.40275e-08
1.5668e-08
-3.41596e-08
1.99356e-08
-1.80107e-07
1.82311e-07
-4.33306e-07
3.45105e-07
-7.63221e-07
4.60925e-07
-1.13042e-06
5.17564e-07
-1.49488e-06
5.15499e-07
-1.82047e-06
4.61213e-07
-2.07727e-06
3.64125e-07
-2.24277e-06
2.34949e-07
-2.30247e-06
8.51065e-08
-2.25044e-06
-7.33007e-08
-2.08987e-06
-2.27384e-07
-1.8335e-06
-3.63492e-07
-1.5038e-06
-4.67592e-07
-1.13241e-06
-5.26187e-07
-7.58399e-07
-5.27978e-07
-4.24758e-07
-4.66474e-07
-1.72418e-07
-3.43541e-07
-3.07253e-08
-1.75721e-07
-1.50573e-08
-9.21341e-08
1.12068e-07
-3.56524e-07
4.46701e-07
-7.63469e-07
7.52049e-07
-1.26662e-06
9.64075e-07
-1.81198e-06
1.06293e-06
-2.3455e-06
1.04901e-06
-2.81814e-06
9.33862e-07
-3.18908e-06
7.35059e-07
-3.42739e-06
4.73258e-07
-3.51318e-06
1.70902e-07
-3.43839e-06
-1.48089e-07
-3.20747e-06
-4.58304e-07
-2.83793e-06
-7.33041e-07
-2.36037e-06
-9.45144e-07
-1.81771e-06
-1.06885e-06
-1.2627e-06
-1.08299e-06
-7.53458e-07
-9.75712e-07
-3.4648e-07
-7.50519e-07
-8.72196e-08
-4.34981e-07
-1.02277e-07
-1.45034e-07
2.57104e-07
-5.24776e-07
8.26443e-07
-1.08017e-06
1.30744e-06
-1.7451e-06
1.629e-06
-2.45089e-06
1.76872e-06
-3.13194e-06
1.73006e-06
-3.72997e-06
1.5319e-06
-4.19691e-06
1.20199e-06
-4.49649e-06
7.72846e-07
-4.60537e-06
2.79783e-07
-4.51388e-06
-2.39579e-07
-4.22683e-06
-7.45357e-07
-3.76418e-06
-1.19569e-06
-3.16135e-06
-1.54798e-06
-2.46858e-06
-1.76162e-06
-1.74877e-06
-1.8028e-06
-1.07311e-06
-1.65137e-06
-5.14469e-07
-1.30916e-06
-1.39136e-07
-8.10315e-07
-2.41413e-07
-1.93373e-07
4.50476e-07
-6.84167e-07
1.31724e-06
-1.38392e-06
2.0072e-06
-2.20451e-06
2.44959e-06
-3.06163e-06
2.62585e-06
-3.87887e-06
2.5473e-06
-4.59066e-06
2.24368e-06
-5.14402e-06
1.75535e-06
-5.49943e-06
1.12826e-06
-5.63137e-06
4.11722e-07
-5.52879e-06
-3.42159e-07
-5.19591e-06
-1.07824e-06
-4.65318e-06
-1.73842e-06
-3.93821e-06
-2.26294e-06
-3.10603e-06
-2.5938e-06
-2.2279e-06
-2.68093e-06
-1.38804e-06
-2.49123e-06
-6.77719e-07
-2.01948e-06
-1.8755e-07
-1.30048e-06
-4.28963e-07
-2.39683e-07
6.9016e-07
-8.39473e-07
1.91702e-06
-1.68154e-06
2.84927e-06
-2.65429e-06
3.42234e-06
-3.65699e-06
3.62855e-06
-4.60289e-06
3.49319e-06
-5.42056e-06
3.06136e-06
-6.05408e-06
2.38886e-06
-6.46242e-06
1.53661e-06
-6.61898e-06
5.68281e-07
-6.51143e-06
-4.49714e-07
-6.14238e-06
-1.44728e-06
-5.53086e-06
-2.34994e-06
-4.71418e-06
-3.07963e-06
-3.74976e-06
-3.55822e-06
-2.71585e-06
-3.71484e-06
-1.70991e-06
-3.49717e-06
-8.43861e-07
-2.88552e-06
-2.35954e-07
-1.90839e-06
-6.64917e-07
-2.86506e-07
9.76666e-07
-9.96285e-07
2.6268e-06
-1.98051e-06
3.83349e-06
-3.10247e-06
4.5443e-06
-4.24452e-06
4.77061e-06
-5.31047e-06
4.55914e-06
-6.22496e-06
3.97585e-06
-6.93139e-06
3.09529e-06
-7.3893e-06
1.99452e-06
-7.5723e-06
7.5128e-07
-7.46698e-06
-5.55033e-07
-7.07334e-06
-1.84092e-06
-6.40676e-06
-3.01653e-06
-5.50128e-06
-3.9851e-06
-4.4137e-06
-4.64581e-06
-3.22697e-06
-4.90157e-06
-2.05146e-06
-4.67269e-06
-1.0218e-06
-3.91518e-06
-2.88076e-07
-2.64212e-06
-9.52993e-07
-3.36147e-07
1.31281e-06
-1.15975e-06
3.45041e-06
-2.28681e-06
4.96054e-06
-3.55309e-06
5.81058e-06
-4.82398e-06
6.04149e-06
-5.9957e-06
5.73086e-06
-6.99202e-06
4.97217e-06
-7.759e-06
3.86226e-06
-8.25962e-06
2.49515e-06
-8.46962e-06
9.61278e-07
-8.37506e-06
-6.49595e-07
-7.9723e-06
-2.24368e-06
-7.27047e-06
-3.71835e-06
-6.2965e-06
-4.95908e-06
-5.10196e-06
-5.84034e-06
-3.77059e-06
-6.23294e-06
-2.42368e-06
-6.0196e-06
-1.22015e-06
-5.1187e-06
-3.47546e-07
-3.51472e-06
-1.30054e-06
-3.90858e-07
1.70367e-06
-1.33454e-06
4.3941e-06
-2.6043e-06
6.2303e-06
-4.00485e-06
7.21114e-06
-5.38527e-06
7.42191e-06
-6.63774e-06
6.98333e-06
-7.68999e-06
6.02442e-06
-8.49566e-06
4.66793e-06
-9.02535e-06
3.02484e-06
-9.25974e-06
1.19566e-06
-9.18548e-06
-7.23847e-07
-8.79448e-06
-2.63469e-06
-8.08667e-06
-4.42617e-06
-7.07673e-06
-5.96901e-06
-5.80452e-06
-7.11255e-06
-4.34776e-06
-7.6897e-06
-2.83402e-06
-7.53334e-06
-1.44671e-06
-6.50601e-06
-4.18e-07
-4.54343e-06
-1.71854e-06
-4.53458e-07
2.15713e-06
-1.52567e-06
5.46631e-06
-2.93484e-06
7.63946e-06
-4.44999e-06
8.72629e-06
-5.90607e-06
8.87799e-06
-7.19739e-06
8.27465e-06
-8.26306e-06
7.09008e-06
-9.07128e-06
5.47616e-06
-9.60594e-06
3.5595e-06
-9.85655e-06
1.44628e-06
-9.81233e-06
-7.68068e-07
-9.4603e-06
-2.98672e-06
-8.78811e-06
-5.09836e-06
-7.79214e-06
-6.96498e-06
-6.49153e-06
-8.41317e-06
-4.94749e-06
-9.23374e-06
-3.28483e-06
-9.196e-06
-1.70856e-06
-8.08228e-06
-5.0357e-07
-5.74842e-06
-2.22211e-06
-5.28454e-07
2.68558e-06
-1.74001e-06
6.67787e-06
-3.2786e-06
9.17805e-06
-4.87251e-06
1.03202e-05
-6.3481e-06
1.03536e-05
-7.61205e-06
9.5386e-06
-8.62565e-06
8.10368e-06
-9.38099e-06
6.2315e-06
-9.88225e-06
4.06076e-06
-1.01327e-05
1.69674e-06
-1.01268e-05
-7.73932e-07
-9.84727e-06
-3.2663e-06
-9.26678e-06
-5.67885e-06
-8.35698e-06
-7.87478e-06
-7.10521e-06
-9.66493e-06
-5.5411e-06
-1.07978e-05
-3.771e-06
-1.09661e-05
-2.01235e-06
-9.84093e-06
-6.09763e-07
-7.151e-06
-2.83187e-06
-6.23892e-07
3.30947e-06
-1.98808e-06
8.04205e-06
-3.63318e-06
1.08232e-05
-5.24377e-06
1.19308e-05
-6.64993e-06
1.17597e-05
-7.78725e-06
1.06759e-05
-8.65411e-06
8.97054e-06
-9.2776e-06
6.85499e-06
-9.68992e-06
4.47307e-06
-9.91315e-06
1.91998e-06
-9.95041e-06
-7.36674e-07
-9.7815e-06
-3.43521e-06
-9.36345e-06
-6.0969e-06
-8.63778e-06
-8.60046e-06
-7.54811e-06
-1.07546e-05
-6.07288e-06
-1.22731e-05
-4.27515e-06
-1.27638e-05
-2.36414e-06
-1.17519e-05
-7.44946e-07
-8.7702e-06
-3.57682e-06
-7.54373e-07
4.06385e-06
-2.28532e-06
9.57299e-06
-3.9888e-06
1.25266e-05
-5.51171e-06
1.34537e-05
-6.71298e-06
1.2961e-05
-7.58261e-06
1.15456e-05
-8.17464e-06
9.56258e-06
-8.5626e-06
7.24295e-06
-8.81291e-06
4.72338e-06
-8.97025e-06
2.07732e-06
-9.04939e-06
-6.57535e-07
-9.03041e-06
-3.45419e-06
-8.85674e-06
-6.27057e-06
-8.43834e-06
-9.01886e-06
-7.66573e-06
-1.15272e-05
-6.44412e-06
-1.34947e-05
-4.75769e-06
-1.44503e-05
-2.76753e-06
-1.37421e-05
-9.2267e-07
-1.06151e-05
-4.49949e-06
-9.45466e-07
5.00931e-06
-2.64959e-06
1.12771e-05
-4.31309e-06
1.41901e-05
-5.57637e-06
1.4717e-05
-6.37468e-06
1.37593e-05
-6.78812e-06
1.1959e-05
-6.94606e-06
9.72051e-06
-6.97582e-06
7.27272e-06
-6.97919e-06
4.72675e-06
-7.02299e-06
2.12112e-06
-7.13492e-06
-5.45605e-07
-7.29966e-06
-3.28945e-06
-7.45391e-06
-6.11632e-06
-7.48238e-06
-8.9904e-06
-7.22154e-06
-1.1788e-05
-6.48545e-06
-1.42308e-05
-5.13525e-06
-1.58005e-05
-3.21592e-06
-1.56614e-05
-1.16457e-06
-1.26664e-05
-5.66406e-06
-1.23726e-06
6.24657e-06
-3.08423e-06
1.31241e-05
-4.50979e-06
1.56157e-05
-5.2376e-06
1.54448e-05
-5.35934e-06
1.38811e-05
-5.08692e-06
1.16866e-05
-4.63682e-06
9.27042e-06
-4.18586e-06
6.82175e-06
-3.86138e-06
4.40228e-06
-3.7442e-06
2.00393e-06
-3.87216e-06
-4.17642e-07
-4.23924e-06
-2.92237e-06
-4.788e-06
-5.56756e-06
-5.39609e-06
-8.38231e-06
-5.8625e-06
-1.13216e-05
-5.90952e-06
-1.41838e-05
-5.23473e-06
-1.64753e-05
-3.66707e-06
-1.72291e-05
-1.4999e-06
-1.48336e-05
-7.16396e-06
-1.67281e-06
7.91938e-06
-3.5136e-06
1.49649e-05
-4.31693e-06
1.6419e-05
-4.09156e-06
1.52194e-05
-3.19676e-06
1.29863e-05
-2.00348e-06
1.04933e-05
-8.00813e-07
8.06776e-06
2.12909e-07
5.80803e-06
9.11287e-07
3.7039e-06
1.21844e-06
1.69678e-06
1.095e-06
-2.94202e-07
5.34417e-07
-2.36179e-06
-4.28865e-07
-4.60428e-06
-1.69756e-06
-7.11361e-06
-3.07629e-06
-9.94289e-06
-4.23352e-06
-1.30265e-05
-4.69713e-06
-1.60117e-05
-3.96716e-06
-1.79591e-05
-1.94366e-06
-1.68571e-05
-9.10762e-06
-2.22681e-06
1.01462e-05
-3.58885e-06
1.63269e-05
-3.07851e-06
1.59087e-05
-1.34569e-06
1.34866e-05
8.9421e-07
1.07464e-05
3.1511e-06
8.23638e-06
5.13329e-06
6.08557e-06
6.68307e-06
4.25825e-06
7.71966e-06
2.66731e-06
8.20012e-06
1.21632e-06
8.09752e-06
-1.91607e-07
7.39306e-06
-1.65732e-06
6.08156e-06
-3.29279e-06
4.19481e-06
-5.22686e-06
1.8509e-06
-7.59899e-06
-6.63704e-07
-1.05119e-05
-2.79268e-06
-1.38827e-05
-3.66004e-06
-1.70917e-05
-2.40695e-06
-1.81102e-05
-1.15146e-05
-2.55983e-06
1.2706e-05
-2.18079e-06
1.59479e-05
7.17844e-07
1.301e-05
4.46866e-06
9.73579e-06
8.13159e-06
7.08343e-06
1.1299e-05
5.06902e-06
1.38256e-05
3.55894e-06
1.56839e-05
2.4e-06
1.68869e-05
1.46426e-06
1.74499e-05
6.53365e-07
1.73714e-05
-1.13134e-07
1.66259e-05
-9.11792e-07
1.51631e-05
-1.83007e-06
1.29203e-05
-2.984e-06
9.85944e-06
-4.53816e-06
6.06066e-06
-6.71313e-06
1.91224e-06
-9.73427e-06
-1.5562e-06
-1.36233e-05
-2.443e-06
-1.72234e-05
-1.39576e-05
-8.0981e-07
1.35158e-05
4.07598e-06
1.10621e-05
1.0297e-05
6.78902e-06
1.57933e-05
4.23948e-06
2.01574e-05
2.71939e-06
2.34568e-05
1.76956e-06
2.58589e-05
1.15686e-06
2.7519e-05
7.39847e-07
2.85511e-05
4.32161e-07
2.90233e-05
1.81158e-07
2.89591e-05
-4.89342e-08
2.8336e-05
-2.88609e-07
2.70795e-05
-5.73594e-07
2.50533e-05
-9.57769e-07
2.20504e-05
-1.53529e-06
1.78145e-05
-2.47721e-06
1.21712e-05
-4.09098e-06
5.47203e-06
-6.92411e-06
-1.56521e-07
-1.15948e-05
-1.41141e-05
1.35158e-05
2.45779e-05
3.13669e-05
3.56064e-05
3.83258e-05
4.00954e-05
4.12522e-05
4.19921e-05
4.24242e-05
4.26054e-05
4.25565e-05
4.22679e-05
4.16943e-05
4.07365e-05
3.92012e-05
3.6724e-05
3.2633e-05
2.57089e-05
1.41141e-05
)
;

boundaryField
{
    movingWall
    {
        type            calculated;
        value           uniform 0;
    }
    fixedWalls
    {
        type            calculated;
        value           uniform 0;
    }
    frontAndBack
    {
        type            empty;
        value           nonuniform List<scalar> 0();
    }
}


// ************************************************************************* //
