/*--------------------------------*- C++ -*----------------------------------*\
  =========                 |
  \\      /  F ield         | OpenFOAM: The Open Source CFD Toolbox
   \\    /   O peration     | Website:  https://openfoam.org
    \\  /    A nd           | Version:  8
     \\/     M anipulation  |
\*---------------------------------------------------------------------------*/
FoamFile
{
    version     2.0;
    format      ascii;
    class       volVectorField;
    location    "0.17";
    object      U;
}
// * * * * * * * * * * * * * * * * * * * * * * * * * * * * * * * * * * * * * //

dimensions      [0 1 -1 0 0 0 0];

internalField   nonuniform List<vector> 
400
(
(0.000252701 -0.000249686 0)
(0.000140748 0.000111517 0)
(-0.0011746 0.000564338 0)
(-0.0034746 0.000884631 0)
(-0.0063663 0.00104542 0)
(-0.00945351 0.00106158 0)
(-0.0123826 0.000957806 0)
(-0.014861 0.000760485 0)
(-0.0166631 0.000494751 0)
(-0.0176307 0.000184709 0)
(-0.0176748 -0.000145086 0)
(-0.0167795 -0.000468159 0)
(-0.0150075 -0.000755197 0)
(-0.0125066 -0.000974058 0)
(-0.00951248 -0.00109102 0)
(-0.00634575 -0.00107392 0)
(-0.00339557 -0.000898179 0)
(-0.00108478 -0.000556626 0)
(0.000195838 -9.05534e-05 0)
(0.000267264 0.000261961 0)
(-7.83767e-05 -0.00016835 0)
(-0.00161012 0.00164253 0)
(-0.00568413 0.00361202 0)
(-0.0117003 0.00502779 0)
(-0.0188623 0.00573557 0)
(-0.026359 0.00575281 0)
(-0.0334164 0.00516526 0)
(-0.039365 0.00408765 0)
(-0.0436757 0.00264475 0)
(-0.0459758 0.000966285 0)
(-0.0460585 -0.000811537 0)
(-0.0438944 -0.0025432 0)
(-0.0396414 -0.00407294 0)
(-0.0336526 -0.00523815 0)
(-0.0264744 -0.00587909 0)
(-0.018827 -0.00585774 0)
(-0.0115495 -0.00508887 0)
(-0.00550481 -0.00358538 0)
(-0.00149116 -0.00155696 0)
(-4.29799e-05 0.000227143 0)
(-0.000529539 0.00109096 0)
(-0.00370809 0.00572739 0)
(-0.0105744 0.0102078 0)
(-0.0199629 0.0133861 0)
(-0.0307195 0.0149226 0)
(-0.0417598 0.0148156 0)
(-0.0520414 0.0132352 0)
(-0.0606525 0.0104403 0)
(-0.0668684 0.00673224 0)
(-0.0701769 0.00243612 0)
(-0.0702954 -0.00210201 0)
(-0.0671846 -0.00651406 0)
(-0.0610628 -0.010412 0)
(-0.0524127 -0.0133998 0)
(-0.0419772 -0.0151004 0)
(-0.0307307 -0.0152032 0)
(-0.0198013 -0.0135367 0)
(-0.010349 -0.0101645 0)
(-0.00354458 -0.00554253 0)
(-0.000477236 -0.000947097 0)
(-0.000928901 0.00347621 0)
(-0.00568596 0.0122027 0)
(-0.0152817 0.0198909 0)
(-0.0278791 0.0251586 0)
(-0.0419278 0.0275541 0)
(-0.0561011 0.0270954 0)
(-0.0691551 0.0240718 0)
(-0.080013 0.0189251 0)
(-0.0878243 0.0121778 0)
(-0.0919894 0.0043999 0)
(-0.0921745 -0.00380005 0)
(-0.0883278 -0.0117763 0)
(-0.0806946 -0.0188514 0)
(-0.0698289 -0.0243382 0)
(-0.0565942 -0.027586 0)
(-0.0421398 -0.0280608 0)
(-0.0278206 -0.0254617 0)
(-0.0150742 -0.019864 0)
(-0.00549945 -0.0119103 0)
(-0.000861994 -0.00321985 0)
(-0.00127953 0.00686996 0)
(-0.00752905 0.0209245 0)
(-0.0197809 0.0324629 0)
(-0.0354917 0.0400439 0)
(-0.0526789 0.0432259 0)
(-0.0697723 0.0421298 0)
(-0.0853571 0.037222 0)
(-0.0982376 0.02917 0)
(-0.107485 0.0187506 0)
(-0.112448 0.0068059 0)
(-0.112757 -0.0057687 0)
(-0.108341 -0.0180246 0)
(-0.0994416 -0.0289657 0)
(-0.0866359 -0.0375758 0)
(-0.0708528 -0.0428824 0)
(-0.0533689 -0.0440669 0)
(-0.0357439 -0.0406234 0)
(-0.0197128 -0.032549 0)
(-0.00736424 -0.0205625 0)
(-0.00120432 -0.00648907 0)
(-0.00160838 0.0112027 0)
(-0.00931086 0.0318329 0)
(-0.0241844 0.0478866 0)
(-0.0429586 0.0579915 0)
(-0.0631921 0.0618504 0)
(-0.0830667 0.0597966 0)
(-0.101018 0.0525538 0)
(-0.11577 0.0410682 0)
(-0.126354 0.0264013 0)
(-0.132098 0.00968227 0)
(-0.13261 -0.00790085 0)
(-0.12779 -0.0250919 0)
(-0.117846 -0.0405638 0)
(-0.10333 -0.0529429 0)
(-0.0851853 -0.0608819 0)
(-0.0647732 -0.0631959 0)
(-0.0438438 -0.0590662 0)
(-0.0244546 -0.0482838 0)
(-0.00924823 -0.0315178 0)
(-0.00153892 -0.0107149 0)
(-0.00194151 0.016459 0)
(-0.0111153 0.0449202 0)
(-0.0286275 0.0661509 0)
(-0.0504398 0.0789589 0)
(-0.0736263 0.0833384 0)
(-0.0961262 0.0799692 0)
(-0.116257 0.069932 0)
(-0.132705 0.0545133 0)
(-0.144511 0.0350873 0)
(-0.151016 0.0130713 0)
(-0.151823 -0.0100677 0)
(-0.146795 -0.0327832 0)
(-0.136072 -0.0534241 0)
(-0.120128 -0.0702421 0)
(-0.0998559 -0.0814603 0)
(-0.076644 -0.0854274 0)
(-0.0524016 -0.0808681 0)
(-0.0295234 -0.0671999 0)
(-0.0112788 -0.0448883 0)
(-0.00190205 -0.0159335 0)
(-0.00230245 0.0226724 0)
(-0.0130217 0.0602363 0)
(-0.0332329 0.0872666 0)
(-0.0580485 0.102879 0)
(-0.084029 0.107539 0)
(-0.108893 0.102439 0)
(-0.130893 0.0891366 0)
(-0.148748 0.0693273 0)
(-0.161571 0.0447195 0)
(-0.168768 0.0170037 0)
(-0.169962 -0.0121122 0)
(-0.164975 -0.0408363 0)
(-0.153841 -0.0672268 0)
(-0.136893 -0.089163 0)
(-0.11488 -0.104389 0)
(-0.089129 -0.110673 0)
(-0.061639 -0.1061 0)
(-0.0351307 -0.0894879 0)
(-0.0135834 -0.0608881 0)
(-0.00232942 -0.0222556 0)
(-0.00271535 0.0299213 0)
(-0.0151084 0.0778845 0)
(-0.0381044 0.111249 0)
(-0.0658302 0.12962 0)
(-0.0942999 0.134179 0)
(-0.121063 0.126839 0)
(-0.144398 0.109783 0)
(-0.163159 0.0851889 0)
(-0.176627 0.0551087 0)
(-0.184342 0.0214682 0)
(-0.185992 -0.0138522 0)
(-0.181358 -0.0488946 0)
(-0.170336 -0.0814974 0)
(-0.15303 -0.109202 0)
(-0.129929 -0.129245 0)
(-0.102154 -0.138691 0)
(-0.071668 -0.134761 0)
(-0.041455 -0.115367 0)
(-0.016289 -0.0798262 0)
(-0.00285924 -0.0298649 0)
(-0.003213 0.0383327 0)
(-0.0174714 0.0980142 0)
(-0.0433401 0.138077 0)
(-0.0737544 0.15891 0)
(-0.104156 0.162755 0)
(-0.132025 0.152531 0)
(-0.155814 0.131215 0)
(-0.174664 0.101542 0)
(-0.188149 0.0658949 0)
(-0.196047 0.0263684 0)
(-0.198163 -0.0150903 0)
(-0.19426 -0.0564813 0)
(-0.184059 -0.0955418 0)
(-0.167347 -0.129561 0)
(-0.144199 -0.15528 0)
(-0.115326 -0.168952 0)
(-0.0824374 -0.166669 0)
(-0.0486316 -0.145015 0)
(-0.019534 -0.102086 0)
(-0.00353999 -0.0390212 0)
(-0.00385127 0.0481029 0)
(-0.0202568 0.12082 0)
(-0.0490558 0.167642 0)
(-0.0817014 0.190233 0)
(-0.113073 0.192412 0)
(-0.14077 0.178472 0)
(-0.163647 0.152385 0)
(-0.181336 0.117492 0)
(-0.193873 0.0764702 0)
(-0.201385 0.0314712 0)
(-0.20388 -0.0156381 0)
(-0.20113 -0.0629875 0)
(-0.192666 -0.108391 0)
(-0.177871 -0.149043 0)
(-0.156235 -0.181271 0)
(-0.127789 -0.20046 0)
(-0.0936504 -0.20129 0)
(-0.056737 -0.178464 0)
(-0.0234903 -0.128099 0)
(-0.00444432 -0.0500788 0)
(-0.00473491 0.0595489 0)
(-0.0237108 0.146551 0)
(-0.0554019 0.199655 0)
(-0.0894076 0.222666 0)
(-0.120165 0.221754 0)
(-0.145728 0.203051 0)
(-0.165691 0.171717 0)
(-0.180437 0.131712 0)
(-0.19065 0.0859056 0)
(-0.196932 0.036352 0)
(-0.199568 -0.0153527 0)
(-0.198398 -0.0676842 0)
(-0.192773 -0.118772 0)
(-0.181622 -0.165956 0)
(-0.163685 -0.20535 0)
(-0.137997 -0.23152 0)
(-0.104617 -0.237496 0)
(-0.0657463 -0.21542 0)
(-0.028394 -0.158298 0)
(-0.00569367 -0.0635291 0)
(-0.00606331 0.0732116 0)
(-0.0282468 0.175509 0)
(-0.0625354 0.233484 0)
(-0.0963011 0.254636 0)
(-0.123918 0.248607 0)
(-0.144474 0.223901 0)
(-0.158758 0.186993 0)
(-0.168205 0.14237 0)
(-0.174305 0.0929074 0)
(-0.178225 0.0403543 0)
(-0.180589 -0.0141842 0)
(-0.181365 -0.0697689 0)
(-0.179785 -0.125125 0)
(-0.174348 -0.178069 0)
(-0.162959 -0.224846 0)
(-0.143366 -0.259459 0)
(-0.113972 -0.273211 0)
(-0.0754138 -0.254972 0)
(-0.0345781 -0.19303 0)
(-0.00750072 -0.0800854 0)
(-0.00820489 0.0900359 0)
(-0.034506 0.207981 0)
(-0.070443 0.267816 0)
(-0.101075 0.283514 0)
(-0.121646 0.269704 0)
(-0.133198 0.237731 0)
(-0.138269 0.195303 0)
(-0.139582 0.14715 0)
(-0.139496 0.0958531 0)
(-0.139728 0.0425957 0)
(-0.141241 -0.0122224 0)
(-0.144181 -0.068463 0)
(-0.147784 -0.12572 0)
(-0.15027 -0.182673 0)
(-0.148803 -0.236214 0)
(-0.139708 -0.280334 0)
(-0.119139 -0.304924 0)
(-0.0849619 -0.29508 0)
(-0.0424651 -0.23233 0)
(-0.0102319 -0.100823 0)
(-0.0117774 0.111629 0)
(-0.0432783 0.24394 0)
(-0.0783262 0.299988 0)
(-0.10068 0.305021 0)
(-0.108425 0.280374 0)
(-0.105825 0.240292 0)
(-0.0976414 0.193196 0)
(-0.0878985 0.143479 0)
(-0.0796399 0.0929875 0)
(-0.0749304 0.0420734 0)
(-0.0749483 -0.00972163 0)
(-0.0800302 -0.063176 0)
(-0.0895908 -0.11893 0)
(-0.1019 -0.176878 0)
(-0.113778 -0.235195 0)
(-0.120376 -0.28879 0)
(-0.115311 -0.327114 0)
(-0.0922915 -0.331735 0)
(-0.0523346 -0.275372 0)
(-0.0144425 -0.127336 0)
(-0.017545 0.140646 0)
(-0.0547621 0.282146 0)
(-0.0828041 0.324696 0)
(-0.0881244 0.312423 0)
(-0.0751734 0.274391 0)
(-0.0526766 0.2267 0)
(-0.0275642 0.177222 0)
(-0.00463775 0.12908 0)
(0.0129624 0.0828743 0)
(0.023296 0.0379292 0)
(0.0252533 -0.00706891 0)
(0.0183675 -0.0537323 0)
(0.00285149 -0.103707 0)
(-0.0201082 -0.158261 0)
(-0.0477761 -0.217434 0)
(-0.0750516 -0.278292 0)
(-0.0935888 -0.331731 0)
(-0.0920772 -0.357647 0)
(-0.0632733 -0.319285 0)
(-0.0206285 -0.161952 0)
(-0.0253976 0.181649 0)
(-0.0657116 0.317827 0)
(-0.0733312 0.331377 0)
(-0.048106 0.29537 0)
(-0.00562485 0.244165 0)
(0.0411512 0.19233 0)
(0.0845649 0.144999 0)
(0.12043 0.102931 0)
(0.146582 0.06511 0)
(0.161919 0.0298785 0)
(0.165811 -0.00466862 0)
(0.15781 -0.0406103 0)
(0.137617 -0.0802152 0)
(0.105341 -0.125877 0)
(0.0621846 -0.17968 0)
(0.0117528 -0.241975 0)
(-0.0378589 -0.307844 0)
(-0.0716713 -0.360153 0)
(-0.0699744 -0.35666 0)
(-0.0278502 -0.208292 0)
(-0.0294353 0.238942 0)
(-0.0606134 0.335945 0)
(-0.0219419 0.300583 0)
(0.0505163 0.240121 0)
(0.127548 0.182922 0)
(0.196966 0.135359 0)
(0.254275 0.0973701 0)
(0.298171 0.0668271 0)
(0.328732 0.0413389 0)
(0.346367 0.0187711 0)
(0.351274 -0.00279224 0)
(0.343204 -0.0252545 0)
(0.32138 -0.0507697 0)
(0.284568 -0.0820251 0)
(0.231517 -0.122422 0)
(0.162146 -0.175649 0)
(0.0798697 -0.243432 0)
(-0.00318651 -0.31922 0)
(-0.0543966 -0.368784 0)
(-0.0282113 -0.267339 0)
(0.00867985 0.281482 0)
(0.0203623 0.295062 0)
(0.138997 0.211059 0)
(0.264405 0.143511 0)
(0.364359 0.0972047 0)
(0.440348 0.0657897 0)
(0.49671 0.0442444 0)
(0.536828 0.0288893 0)
(0.563391 0.0172006 0)
(0.578244 0.00748601 0)
(0.582317 -0.00149314 0)
(0.575635 -0.0108447 0)
(0.557255 -0.0218484 0)
(0.525092 -0.0363403 0)
(0.475748 -0.0572719 0)
(0.404516 -0.0894068 0)
(0.305107 -0.139784 0)
(0.173327 -0.216476 0)
(0.0417933 -0.311726 0)
(0.0190841 -0.299589 0)
(0.300183 0.145891 0)
(0.396873 0.12746 0)
(0.55741 0.0761134 0)
(0.674459 0.0437527 0)
(0.74389 0.0255987 0)
(0.787148 0.0152641 0)
(0.815471 0.00922862 0)
(0.833936 0.00552061 0)
(0.845362 0.00303427 0)
(0.851347 0.00115303 0)
(0.852641 -0.00049901 0)
(0.849359 -0.00221783 0)
(0.840978 -0.00434528 0)
(0.826123 -0.00743607 0)
(0.802067 -0.0125509 0)
(0.763613 -0.021799 0)
(0.699067 -0.0393162 0)
(0.583905 -0.0726883 0)
(0.416411 -0.12782 0)
(0.309416 -0.149275 0)
)
;

boundaryField
{
    movingWall
    {
        type            fixedValue;
        value           uniform (1 0 0);
    }
    fixedWalls
    {
        type            noSlip;
    }
    frontAndBack
    {
        type            empty;
    }
}


// ************************************************************************* //
