/*--------------------------------*- C++ -*----------------------------------*\
  =========                 |
  \\      /  F ield         | OpenFOAM: The Open Source CFD Toolbox
   \\    /   O peration     | Website:  https://openfoam.org
    \\  /    A nd           | Version:  8
     \\/     M anipulation  |
\*---------------------------------------------------------------------------*/
FoamFile
{
    version     2.0;
    format      ascii;
    class       volScalarField;
    location    "0.09";
    object      p;
}
// * * * * * * * * * * * * * * * * * * * * * * * * * * * * * * * * * * * * * //

dimensions      [0 2 -2 0 0 0 0];

internalField   nonuniform List<scalar> 
400
(
2.4659e-08
-0.0056925
-0.012663
-0.0179539
-0.0198533
-0.0176177
-0.0112004
-0.00104732
0.0120517
0.0270723
0.042838
0.0580902
0.0715667
0.0821037
0.0887687
0.0910266
0.0889384
0.0833796
0.0762511
0.0706129
0.0055382
-0.000313252
-0.00576575
-0.00938452
-0.0103519
-0.0081444
-0.00269605
0.00567359
0.0163664
0.0285856
0.0414019
0.0538148
0.0648239
0.0735167
0.0791769
0.0814088
0.0802832
0.0764248
0.0708277
0.0650502
0.0127729
0.00470067
-0.00116967
-0.00447827
-0.00523813
-0.00317529
0.00170378
0.00909637
0.0184893
0.0292097
0.0404691
0.051411
0.0611697
0.0689439
0.0740846
0.076196
0.0752637
0.0716594
0.0655695
0.0575374
0.0192836
0.00815792
0.000886473
-0.00287233
-0.00382202
-0.00191356
0.00273945
0.00979091
0.0187429
0.0289731
0.039756
0.0502947
0.0597657
0.067379
0.0724513
0.0744982
0.0733721
0.0692222
0.0615882
0.0503984
0.0234465
0.00909917
0.000141977
-0.00428527
-0.0054827
-0.00359876
0.00114156
0.0083263
0.0174414
0.0278785
0.0389346
0.0498266
0.0597215
0.0677842
0.0732397
0.0754644
0.0741502
0.0692399
0.0597198
0.0451025
0.0240478
0.00643015
-0.00428717
-0.00938642
-0.0107127
-0.00859583
-0.00337443
0.00446028
0.0143587
0.0257031
0.0377857
0.0498053
0.060882
0.0700908
0.0765164
0.0793482
0.0780819
0.0724466
0.0609076
0.0426653
0.0200285
-0.00092991
-0.0133794
-0.0190001
-0.0201855
-0.0174515
-0.0112591
-0.00219026
0.00915809
0.022147
0.0360503
0.0500313
0.0631382
0.0743221
0.0824807
0.0865613
0.0858083
0.0796919
0.0661113
0.0439753
0.0102809
-0.0141359
-0.0282034
-0.0340399
-0.0346533
-0.0307788
-0.0230201
-0.0120614
0.00144928
0.0168532
0.0334096
0.0502471
0.0663351
0.0804792
0.0913478
0.0975794
0.0980839
0.0919765
0.0764496
0.0500569
-0.00650352
-0.0345475
-0.0500156
-0.0555738
-0.0549862
-0.0492768
-0.0392272
-0.0256364
-0.00919798
0.00942749
0.0295086
0.0501636
0.0702992
0.0885729
0.10339
0.113003
0.115871
0.110591
0.0933886
0.0622972
-0.031979
-0.0638593
-0.0803359
-0.0848389
-0.082138
-0.0736639
-0.0604282
-0.043356
-0.0231679
-0.000487935
0.0240121
0.0494943
0.0748512
0.0986202
0.118929
0.133569
0.140394
0.13724
0.11894
0.0826828
-0.0683405
-0.10427
-0.12103
-0.123229
-0.117065
-0.104553
-0.0870021
-0.0654665
-0.0406546
-0.0130877
0.0167056
0.0480243
0.0798403
0.110647
0.138325
0.160148
0.173193
0.174192
0.155919
0.114118
-0.118664
-0.158741
-0.174405
-0.17225
-0.160583
-0.142257
-0.118945
-0.0918063
-0.061462
-0.0282248
0.00764422
0.0457215
0.0852096
0.124707
0.161957
0.193726
0.216161
0.224452
0.208312
0.160931
-0.187592
-0.231437
-0.243323
-0.233387
-0.213115
-0.186491
-0.155567
-0.121524
-0.0847506
-0.0451912
-0.00266575
0.0428728
0.0910786
0.1409
0.190184
0.235344
0.271545
0.291966
0.28184
0.229798
-0.282821
-0.328455
-0.331242
-0.3078
-0.274253
-0.235922
-0.195103
-0.152754
-0.108781
-0.0625191
-0.0131188
0.0401799
0.0977718
0.159317
0.223192
0.285876
0.34178
0.381762
0.384826
0.331569
-0.418269
-0.458958
-0.441946
-0.395546
-0.341948
-0.287513
-0.234234
-0.182322
-0.130755
-0.0779219
-0.0220258
0.038678
0.105658
0.179756
0.260541
0.345407
0.428841
0.499728
0.529396
0.48485
-0.6198
-0.636345
-0.578609
-0.494322
-0.411466
-0.335842
-0.267786
-0.205716
-0.146981
-0.0885707
-0.0274495
0.0393641
0.114733
0.201205
0.300457
0.41225
0.533035
0.651596
0.732303
0.72162
-0.935634
-0.878545
-0.742076
-0.598518
-0.475092
-0.37331
-0.289313
-0.217899
-0.153748
-0.0919529
-0.0279959
0.0424937
0.123996
0.221267
0.339219
0.482172
0.651753
0.840892
1.01461
1.09655
-1.47615
-1.20752
-0.921237
-0.692309
-0.518422
-0.388619
-0.29091
-0.213852
-0.148261
-0.0870007
-0.0241
0.046065
0.129526
0.233507
0.367297
0.542572
0.770833
1.05869
1.40296
1.72856
-2.53659
-1.63426
-1.04577
-0.71204
-0.49714
-0.353503
-0.255732
-0.184443
-0.126617
-0.0736315
-0.0189684
0.0433014
0.119784
0.21926
0.355079
0.54793
0.825903
1.23636
1.91405
2.91914
-4.36077
-2.04809
-0.975341
-0.564861
-0.359917
-0.242253
-0.171972
-0.125201
-0.0883572
-0.0538157
-0.0164413
0.0282669
0.085448
0.162641
0.273251
0.442714
0.718433
1.22608
2.41303
4.84088
)
;

boundaryField
{
    movingWall
    {
        type            zeroGradient;
    }
    fixedWalls
    {
        type            zeroGradient;
    }
    frontAndBack
    {
        type            empty;
    }
}


// ************************************************************************* //
