/*--------------------------------*- C++ -*----------------------------------*\
  =========                 |
  \\      /  F ield         | OpenFOAM: The Open Source CFD Toolbox
   \\    /   O peration     | Website:  https://openfoam.org
    \\  /    A nd           | Version:  8
     \\/     M anipulation  |
\*---------------------------------------------------------------------------*/
FoamFile
{
    version     2.0;
    format      ascii;
    class       surfaceScalarField;
    location    "0.09";
    object      phi;
}
// * * * * * * * * * * * * * * * * * * * * * * * * * * * * * * * * * * * * * //

dimensions      [0 3 -1 0 0 0 0];

internalField   nonuniform List<scalar> 
760
(
1.39148e-08
-1.3915e-08
-2.13047e-08
3.52198e-08
-1.10602e-07
8.92971e-08
-2.37798e-07
1.27196e-07
-3.83644e-07
1.45846e-07
-5.30013e-07
1.46369e-07
-6.61335e-07
1.31322e-07
-7.65162e-07
1.03827e-07
-8.32303e-07
6.71412e-08
-8.56852e-07
2.45489e-08
-8.36293e-07
-2.05588e-08
-7.71728e-07
-6.45646e-08
-6.68168e-07
-1.03561e-07
-5.34766e-07
-1.33402e-07
-3.84857e-07
-1.4991e-07
-2.35542e-07
-1.49316e-07
-1.06513e-07
-1.29029e-07
-1.77823e-08
-8.87307e-08
1.53095e-08
-3.30919e-08
1.53096e-08
-3.30337e-08
1.91182e-08
-1.74393e-07
1.76579e-07
-4.19708e-07
3.34613e-07
-7.39189e-07
4.46677e-07
-1.09451e-06
5.01164e-07
-1.44692e-06
4.98777e-07
-1.76154e-06
4.45947e-07
-2.0096e-06
3.51886e-07
-2.16946e-06
2.27005e-07
-2.22724e-06
8.23269e-08
-2.17725e-06
-7.05453e-08
-2.02253e-06
-2.1929e-07
-1.77524e-06
-3.50849e-07
-1.4569e-06
-4.51747e-07
-1.09787e-06
-5.08932e-07
-7.35841e-07
-5.1135e-07
-4.12412e-07
-4.52457e-07
-1.67462e-07
-3.3368e-07
-2.98348e-08
-1.70718e-07
-1.45252e-08
-8.92234e-08
1.08341e-07
-3.45388e-07
4.32743e-07
-7.39545e-07
7.2877e-07
-1.22656e-06
9.33691e-07
-1.75405e-06
1.02865e-06
-2.26972e-06
1.01446e-06
-2.72633e-06
9.02549e-07
-3.08457e-06
7.10128e-07
-3.31479e-06
4.5723e-07
-3.39794e-06
1.6547e-07
-3.32624e-06
-1.4224e-07
-3.10391e-06
-4.4162e-07
-2.74763e-06
-7.07132e-07
-2.28669e-06
-9.1269e-07
-1.76225e-06
-1.03337e-06
-1.22516e-06
-1.04844e-06
-7.31664e-07
-9.45949e-07
-3.36723e-07
-7.28622e-07
-8.48405e-08
-4.226e-07
-9.93661e-08
-1.40644e-07
2.48986e-07
-5.08991e-07
8.01089e-07
-1.04751e-06
1.26729e-06
-1.69185e-06
1.57803e-06
-2.37533e-06
1.71213e-06
-3.0344e-06
1.67353e-06
-3.61283e-06
1.48098e-06
-4.06434e-06
1.16164e-06
-4.35413e-06
7.47025e-07
-4.4598e-06
2.71138e-07
-4.37204e-06
-2.30004e-07
-4.09536e-06
-7.18298e-07
-3.64879e-06
-1.1537e-06
-3.06622e-06
-1.49526e-06
-2.39592e-06
-1.70368e-06
-1.69854e-06
-1.74582e-06
-1.04308e-06
-1.60141e-06
-5.00438e-07
-1.27126e-06
-1.3544e-07
-7.87598e-07
-2.34807e-07
-1.87956e-07
4.36943e-07
-6.65167e-07
1.2783e-06
-1.34531e-06
1.94744e-06
-2.14245e-06
2.37517e-06
-2.97453e-06
2.5442e-06
-3.76735e-06
2.46635e-06
-4.45748e-06
2.17111e-06
-4.99382e-06
1.69798e-06
-5.33838e-06
1.09159e-06
-5.46665e-06
3.99407e-07
-5.36798e-06
-3.2868e-07
-5.04629e-06
-1.03998e-06
-4.52111e-06
-1.67889e-06
-3.82845e-06
-2.18791e-06
-3.02129e-06
-2.51084e-06
-2.16854e-06
-2.59857e-06
-1.35195e-06
-2.418e-06
-6.60511e-07
-1.9627e-06
-1.82885e-07
-1.26522e-06
-4.17691e-07
-2.33827e-07
6.7077e-07
-8.19124e-07
1.8636e-06
-1.64056e-06
2.76887e-06
-2.58892e-06
3.32353e-06
-3.56578e-06
3.52107e-06
-4.48661e-06
3.38718e-06
-5.28208e-06
2.96657e-06
-5.89809e-06
2.31399e-06
-6.29515e-06
1.48865e-06
-6.44764e-06
5.519e-07
-6.34368e-06
-4.32645e-07
-5.98567e-06
-1.39799e-06
-5.39175e-06
-2.2728e-06
-4.59776e-06
-2.9819e-06
-3.65913e-06
-3.44946e-06
-2.65174e-06
-3.60596e-06
-1.67051e-06
-3.39923e-06
-8.24868e-07
-2.80834e-06
-2.30739e-07
-1.85935e-06
-6.4843e-07
-2.80839e-07
9.51609e-07
-9.7668e-07
2.55944e-06
-1.94117e-06
3.73336e-06
-3.03993e-06
4.42229e-06
-4.15747e-06
4.63861e-06
-5.19961e-06
4.42932e-06
-6.09292e-06
3.85988e-06
-6.78249e-06
3.00357e-06
-7.22929e-06
1.93545e-06
-7.40789e-06
7.30495e-07
-7.30534e-06
-5.35191e-07
-6.92154e-06
-1.78179e-06
-6.27116e-06
-2.92318e-06
-5.38699e-06
-3.86608e-06
-4.32401e-06
-4.51245e-06
-3.16299e-06
-4.76698e-06
-2.01181e-06
-4.5504e-06
-1.00254e-06
-3.81761e-06
-2.82748e-07
-2.57915e-06
-9.3118e-07
-3.31301e-07
1.28291e-06
-1.14304e-06
3.37118e-06
-2.25328e-06
4.8436e-06
-3.49974e-06
5.66875e-06
-4.74957e-06
5.88844e-06
-5.90068e-06
5.58043e-06
-6.87844e-06
4.83764e-06
-7.63037e-06
3.7555e-06
-8.1207e-06
2.42578e-06
-8.32605e-06
9.35845e-07
-8.23298e-06
-6.28262e-07
-7.83787e-06
-2.1769e-06
-7.1494e-06
-3.61165e-06
-6.19352e-06
-4.82196e-06
-5.02038e-06
-5.68559e-06
-3.71183e-06
-6.07553e-06
-2.38694e-06
-5.8753e-06
-1.20217e-06
-5.00239e-06
-3.42536e-07
-3.43878e-06
-1.27372e-06
-3.8744e-07
1.67035e-06
-1.32273e-06
4.30647e-06
-2.58047e-06
6.10134e-06
-3.96663e-06
7.05491e-06
-5.33146e-06
7.25326e-06
-6.56833e-06
6.81731e-06
-7.60617e-06
5.87547e-06
-8.39974e-06
4.54907e-06
-8.92065e-06
2.94668e-06
-9.15033e-06
1.16553e-06
-9.07595e-06
-7.02641e-07
-8.68956e-06
-2.56328e-06
-7.99091e-06
-4.3103e-06
-6.99414e-06
-5.81873e-06
-5.73815e-06
-6.94159e-06
-4.29927e-06
-7.5144e-06
-2.8033e-06
-7.37127e-06
-1.43149e-06
-6.37419e-06
-4.1372e-07
-4.45655e-06
-1.68744e-06
-4.5198e-07
2.12233e-06
-1.52043e-06
5.37492e-06
-2.92389e-06
7.5048e-06
-4.43175e-06
8.56277e-06
-5.87938e-06
8.70089e-06
-7.16166e-06
8.0996e-06
-8.2184e-06
6.93221e-06
-9.01854e-06
5.34921e-06
-9.54664e-06
3.47478e-06
-9.79282e-06
1.41171e-06
-9.74673e-06
-7.4873e-07
-9.39568e-06
-2.91434e-06
-8.72741e-06
-4.97856e-06
-7.73823e-06
-6.80791e-06
-6.44691e-06
-8.23291e-06
-4.91396e-06
-9.04736e-06
-3.26302e-06
-9.02221e-06
-1.6975e-06
-7.93971e-06
-5.00392e-07
-5.65367e-06
-2.18783e-06
-5.29244e-07
2.65157e-06
-1.74237e-06
6.58805e-06
-3.28251e-06
9.04493e-06
-4.87726e-06
1.01575e-05
-6.35262e-06
1.01763e-05
-7.61517e-06
9.36214e-06
-8.62635e-06
7.94338e-06
-9.37851e-06
6.10138e-06
-9.87618e-06
3.97245e-06
-1.0123e-05
1.65849e-06
-1.01137e-05
-7.58028e-07
-9.83123e-06
-3.19676e-06
-9.24886e-06
-5.56094e-06
-8.3385e-06
-7.71826e-06
-7.08782e-06
-9.48359e-06
-5.5265e-06
-1.06087e-05
-3.76058e-06
-1.07881e-05
-2.00665e-06
-9.69363e-06
-6.08012e-07
-7.05231e-06
-2.79584e-06
-6.27014e-07
3.27859e-06
-1.9982e-06
7.95923e-06
-3.65223e-06
1.0699e-05
-5.27203e-06
1.17773e-05
-6.68649e-06
1.15907e-05
-7.8305e-06
1.05062e-05
-8.70199e-06
8.81488e-06
-9.32787e-06
6.72725e-06
-9.74021e-06
4.38479e-06
-9.96114e-06
1.87942e-06
-9.9939e-06
-7.25267e-07
-9.81862e-06
-3.37204e-06
-9.39291e-06
-5.98665e-06
-8.65906e-06
-8.45212e-06
-7.56166e-06
-1.0581e-05
-6.08007e-06
-1.20903e-05
-4.27799e-06
-1.25902e-05
-2.36473e-06
-1.16069e-05
-7.44873e-07
-8.67217e-06
-3.54071e-06
-7.5956e-07
4.03815e-06
-2.30231e-06
9.50198e-06
-4.02131e-06
1.2418e-05
-5.56101e-06
1.3317e-05
-6.77857e-06
1.28083e-05
-7.66265e-06
1.13902e-05
-8.26638e-06
9.4186e-06
-8.66253e-06
7.1234e-06
-8.91699e-06
4.63925e-06
-9.07407e-06
2.0365e-06
-9.14843e-06
-6.50911e-07
-9.12037e-06
-3.40009e-06
-8.93398e-06
-6.17304e-06
-8.50033e-06
-8.88577e-06
-7.71146e-06
-1.13699e-05
-6.47432e-06
-1.33274e-05
-4.77472e-06
-1.42898e-05
-2.77493e-06
-1.36067e-05
-9.24434e-07
-1.05227e-05
-4.46515e-06
-9.52086e-07
4.99023e-06
-2.67141e-06
1.12213e-05
-4.35528e-06
1.41018e-05
-5.64124e-06
1.4603e-05
-6.46234e-06
1.36294e-05
-6.89694e-06
1.18248e-05
-7.07298e-06
9.59464e-06
-7.11654e-06
7.16697e-06
-7.12837e-06
4.65108e-06
-7.17452e-06
2.08265e-06
-7.28227e-06
-5.43157e-07
-7.43639e-06
-3.24597e-06
-7.57424e-06
-6.0352e-06
-7.58179e-06
-8.87821e-06
-7.29747e-06
-1.16542e-05
-6.5377e-06
-1.40872e-05
-5.16617e-06
-1.56613e-05
-3.23013e-06
-1.55427e-05
-1.16822e-06
-1.25846e-05
-5.63336e-06
-1.24435e-06
6.23459e-06
-3.1079e-06
1.30849e-05
-4.55617e-06
1.55501e-05
-5.31005e-06
1.53569e-05
-5.45889e-06
1.37782e-05
-5.21256e-06
1.15785e-05
-4.78567e-06
9.16775e-06
-4.35329e-06
6.73459e-06
-4.04128e-06
4.33906e-06
-3.92925e-06
1.97062e-06
-4.0544e-06
-4.18012e-07
-4.4106e-06
-2.88977e-06
-4.94103e-06
-5.50477e-06
-5.52471e-06
-8.29454e-06
-5.9627e-06
-1.12162e-05
-5.98007e-06
-1.40698e-05
-5.27756e-06
-1.63638e-05
-3.68732e-06
-1.7133e-05
-1.50529e-06
-1.47666e-05
-7.13866e-06
-1.67921e-06
7.9138e-06
-3.53559e-06
1.49412e-05
-4.36114e-06
1.63756e-05
-4.16234e-06
1.51581e-05
-3.29628e-06
1.29122e-05
-2.13167e-06
1.04139e-05
-9.55381e-07
7.99146e-06
3.64628e-08
5.74275e-06
7.19385e-07
3.65614e-06
1.01895e-06
1.67105e-06
8.96664e-07
-2.95723e-07
3.46128e-07
-2.33923e-06
-5.98783e-07
-4.55986e-06
-1.84211e-06
-7.05121e-06
-3.19055e-06
-9.86775e-06
-4.31537e-06
-1.2945e-05
-4.74782e-06
-1.59314e-05
-3.99168e-06
-1.78891e-05
-1.9504e-06
-1.68079e-05
-9.08906e-06
-2.23144e-06
1.01452e-05
-3.60591e-06
1.63157e-05
-3.11462e-06
1.58844e-05
-1.40605e-06
1.34495e-05
8.06332e-07
1.06998e-05
3.03473e-06
8.1855e-06
4.98998e-06
6.03621e-06
6.51687e-06
4.21585e-06
7.53677e-06
2.63624e-06
8.00833e-06
1.19949e-06
7.90551e-06
-1.92904e-07
7.20963e-06
-1.64335e-06
5.91492e-06
-3.26515e-06
4.0519e-06
-5.18819e-06
1.73674e-06
-7.55259e-06
-7.46592e-07
-1.04617e-05
-2.8449e-06
-1.38331e-05
-3.6858e-06
-1.70482e-05
-2.41422e-06
-1.80795e-05
-1.15033e-05
-2.56201e-06
1.27072e-05
-2.1909e-06
1.59446e-05
6.93768e-07
1.29997e-05
4.42511e-06
9.71814e-06
8.06462e-06
7.06027e-06
1.12068e-05
5.04327e-06
1.37092e-05
3.53384e-06
1.55466e-05
2.37848e-06
1.67342e-05
1.44861e-06
1.72887e-05
6.45025e-07
1.72094e-05
-1.13612e-07
1.64707e-05
-9.04678e-07
1.50219e-05
-1.81631e-06
1.27987e-05
-2.96504e-06
9.76184e-06
-4.51569e-06
5.98919e-06
-6.68902e-06
1.86669e-06
-9.71057e-06
-1.57902e-06
-1.36025e-05
-2.44959e-06
-1.72089e-05
-1.39529e-05
-8.09714e-07
1.3517e-05
4.0728e-06
1.10621e-05
1.02858e-05
6.78668e-06
1.57693e-05
4.23463e-06
2.01169e-05
2.71268e-06
2.33982e-05
1.762e-06
2.57825e-05
1.14952e-06
2.74273e-05
7.33651e-07
2.84482e-05
4.27778e-07
2.89142e-05
1.78974e-07
2.88494e-05
-4.88166e-08
2.82311e-05
-2.86341e-07
2.69843e-05
-5.69525e-07
2.49716e-05
-9.52364e-07
2.1985e-05
-1.52906e-06
1.77666e-05
-2.47066e-06
1.21407e-05
-4.08466e-06
5.45689e-06
-6.91866e-06
-1.60733e-07
-1.15913e-05
-1.41136e-05
1.3517e-05
2.4579e-05
3.13657e-05
3.56004e-05
3.8313e-05
4.0075e-05
4.12246e-05
4.19582e-05
4.2386e-05
4.2565e-05
4.25161e-05
4.22298e-05
4.16603e-05
4.07079e-05
3.91789e-05
3.67082e-05
3.26235e-05
2.57049e-05
1.41136e-05
)
;

boundaryField
{
    movingWall
    {
        type            calculated;
        value           uniform 0;
    }
    fixedWalls
    {
        type            calculated;
        value           uniform 0;
    }
    frontAndBack
    {
        type            empty;
        value           nonuniform List<scalar> 0();
    }
}


// ************************************************************************* //
