/*--------------------------------*- C++ -*----------------------------------*\
  =========                 |
  \\      /  F ield         | OpenFOAM: The Open Source CFD Toolbox
   \\    /   O peration     | Website:  https://openfoam.org
    \\  /    A nd           | Version:  8
     \\/     M anipulation  |
\*---------------------------------------------------------------------------*/
FoamFile
{
    version     2.0;
    format      ascii;
    class       volVectorField;
    location    "0.09";
    object      U;
}
// * * * * * * * * * * * * * * * * * * * * * * * * * * * * * * * * * * * * * //

dimensions      [0 1 -1 0 0 0 0];

internalField   nonuniform List<vector> 
400
(
(0.000245319 -0.000244724 0)
(0.000139332 0.000108003 0)
(-0.00113798 0.000551655 0)
(-0.0033715 0.00086326 0)
(-0.00617756 0.00101859 0)
(-0.00917054 0.00103323 0)
(-0.0120077 0.000931232 0)
(-0.0144063 0.000738407 0)
(-0.0161491 0.000479553 0)
(-0.0170843 0.000178263 0)
(-0.0171269 -0.000141747 0)
(-0.0162617 -0.000455071 0)
(-0.0145492 -0.000733593 0)
(-0.0121309 -0.000946399 0)
(-0.00923301 -0.00106089 0)
(-0.0061643 -0.00104567 0)
(-0.00330108 -0.000876319 0)
(-0.00105433 -0.00054472 0)
(0.000191693 -8.94326e-05 0)
(0.000261016 0.000255767 0)
(-7.66799e-05 -0.000166472 0)
(-0.00155937 0.00159058 0)
(-0.00550576 0.00350606 0)
(-0.0113336 0.00487794 0)
(-0.0182667 0.00555978 0)
(-0.0255177 0.00557182 0)
(-0.0323389 0.0049989 0)
(-0.0380854 0.00395323 0)
(-0.0422489 0.00255643 0)
(-0.0444716 0.000933998 0)
(-0.0445555 -0.000783268 0)
(-0.0424721 -0.00245616 0)
(-0.038372 -0.00393566 0)
(-0.0325928 -0.00506558 0)
(-0.0256583 -0.00569152 0)
(-0.0182611 -0.00567849 0)
(-0.0112116 -0.00494089 0)
(-0.00534699 -0.00348634 0)
(-0.00144877 -0.00151381 0)
(-4.20901e-05 0.000222435 0)
(-0.000514105 0.0010513 0)
(-0.00359279 0.00554702 0)
(-0.0102451 0.00989346 0)
(-0.0193358 0.0129666 0)
(-0.0297436 0.0144438 0)
(-0.0404179 0.0143296 0)
(-0.0503522 0.0127928 0)
(-0.0586688 0.0100866 0)
(-0.0646719 0.00650362 0)
(-0.0678705 0.00235726 0)
(-0.0679934 -0.00202088 0)
(-0.0650022 -0.00627901 0)
(-0.0591042 -0.010046 0)
(-0.0507604 -0.0129415 0)
(-0.0406823 -0.0146008 0)
(-0.0298067 -0.0147199 0)
(-0.0192228 -0.0131257 0)
(-0.0100555 -0.00986954 0)
(-0.00344742 -0.00538428 0)
(-0.000466061 -0.000918421 0)
(-0.000902303 0.0033634 0)
(-0.00551582 0.0118226 0)
(-0.0148224 0.0192736 0)
(-0.0270341 0.0243635 0)
(-0.040643 0.0266636 0)
(-0.0543629 0.0262012 0)
(-0.0669913 0.0232636 0)
(-0.0774907 0.018283 0)
(-0.0850441 0.011766 0)
(-0.089076 0.00426137 0)
(-0.0892663 -0.00364824 0)
(-0.0855638 -0.0113459 0)
(-0.0782013 -0.0181837 0)
(-0.0677077 -0.0235014 0)
(-0.0549109 -0.0266693 0)
(-0.0409165 -0.0271646 0)
(-0.0270344 -0.0246837 0)
(-0.01466 -0.0192832 0)
(-0.00535311 -0.0115719 0)
(-0.000841497 -0.00312955 0)
(-0.00124522 0.00665663 0)
(-0.0073208 0.0202893 0)
(-0.0192322 0.0314732 0)
(-0.0344991 0.0387995 0)
(-0.0511897 0.0418522 0)
(-0.0677774 0.0407627 0)
(-0.082891 0.0359934 0)
(-0.095376 0.0281978 0)
(-0.104339 0.0181291 0)
(-0.109153 0.00659807 0)
(-0.109464 -0.00553821 0)
(-0.105203 -0.0173735 0)
(-0.0965969 -0.0279546 0)
(-0.0841989 -0.0363048 0)
(-0.0689003 -0.041482 0)
(-0.0519322 -0.0426839 0)
(-0.0348058 -0.039403 0)
(-0.0192088 -0.0316131 0)
(-0.00718127 -0.019991 0)
(-0.00117707 -0.00631346 0)
(-0.00157086 0.010874 0)
(-0.00908619 0.0309102 0)
(-0.0235987 0.0464853 0)
(-0.0419083 0.0562588 0)
(-0.0616277 0.059958 0)
(-0.0809825 0.0579255 0)
(-0.0984514 0.0508789 0)
(-0.112797 0.0397454 0)
(-0.123088 0.0255556 0)
(-0.128674 0.00939695 0)
(-0.129182 -0.0075928 0)
(-0.124511 -0.0242133 0)
(-0.114858 -0.0391941 0)
(-0.100754 -0.0512132 0)
(-0.0831053 -0.0589639 0)
(-0.0632284 -0.0612847 0)
(-0.0428242 -0.0573572 0)
(-0.0239004 -0.0469479 0)
(-0.0090444 -0.030678 0)
(-0.00150783 -0.0104386 0)
(-0.00190516 0.0160122 0)
(-0.0108982 0.0437059 0)
(-0.0280641 0.0643361 0)
(-0.0494334 0.0767395 0)
(-0.0721317 0.0809319 0)
(-0.0941383 0.0776 0)
(-0.11381 0.0678156 0)
(-0.12987 0.0528417 0)
(-0.14139 0.0340147 0)
(-0.147736 0.0127014 0)
(-0.148527 -0.00969306 0)
(-0.143627 -0.0316903 0)
(-0.133169 -0.0517085 0)
(-0.117609 -0.0680631 0)
(-0.0978053 -0.0790282 0)
(-0.0751079 -0.0829836 0)
(-0.0513786 -0.0786591 0)
(-0.0289627 -0.0654482 0)
(-0.0110709 -0.0437661 0)
(-0.00186996 -0.0155498 0)
(-0.00227143 0.0221176 0)
(-0.0128365 0.0587567 0)
(-0.0327528 0.0850768 0)
(-0.0571906 0.100219 0)
(-0.0827531 0.104667 0)
(-0.107192 0.0996165 0)
(-0.128793 0.0866151 0)
(-0.146305 0.0673313 0)
(-0.158869 0.04343 0)
(-0.165913 0.0165431 0)
(-0.167075 -0.0116924 0)
(-0.16218 -0.0395632 0)
(-0.15126 -0.065208 0)
(-0.134633 -0.0865807 0)
(-0.113023 -0.101487 0)
(-0.0877239 -0.107733 0)
(-0.0606941 -0.103417 0)
(-0.0346082 -0.0873368 0)
(-0.0133882 -0.0594915 0)
(-0.00229896 -0.0217667 0)
(-0.00269371 0.0292815 0)
(-0.0149781 0.0761963 0)
(-0.0377648 0.108762 0)
(-0.0652189 0.126609 0)
(-0.0933824 0.13093 0)
(-0.119827 0.123646 0)
(-0.142856 0.106925 0)
(-0.161347 0.0829162 0)
(-0.174601 0.0536251 0)
(-0.182179 0.0209131 0)
(-0.183779 -0.0134171 0)
(-0.179191 -0.0474947 0)
(-0.168308 -0.0792468 0)
(-0.151229 -0.106299 0)
(-0.128428 -0.125957 0)
(-0.101002 -0.135334 0)
(-0.0708816 -0.131671 0)
(-0.0410145 -0.112865 0)
(-0.0161224 -0.0781854 0)
(-0.00283283 -0.0292813 0)
(-0.00320424 0.0376423 0)
(-0.0174151 0.0962 0)
(-0.0431879 0.135408 0)
(-0.0734697 0.155675 0)
(-0.103711 0.15926 0)
(-0.131401 0.149085 0)
(-0.155008 0.128118 0)
(-0.173683 0.0990622 0)
(-0.187019 0.0642544 0)
(-0.194804 0.0257202 0)
(-0.196856 -0.0146751 0)
(-0.192944 -0.0550232 0)
(-0.182792 -0.0931557 0)
(-0.166188 -0.126452 0)
(-0.143204 -0.151729 0)
(-0.114539 -0.165297 0)
(-0.0818843 -0.163276 0)
(-0.0483137 -0.142244 0)
(-0.0194108 -0.100253 0)
(-0.00351976 -0.0383613 0)
(-0.00385772 0.0474048 0)
(-0.0202866 0.118982 0)
(-0.0491203 0.164928 0)
(-0.0817929 0.18693 0)
(-0.113172 0.188827 0)
(-0.140851 0.174918 0)
(-0.163689 0.14917 0)
(-0.18132 0.114896 0)
(-0.193788 0.0747247 0)
(-0.201226 0.0307391 0)
(-0.203648 -0.0152775 0)
(-0.200834 -0.0615482 0)
(-0.192321 -0.105983 0)
(-0.177501 -0.145868 0)
(-0.155869 -0.177611 0)
(-0.127461 -0.196659 0)
(-0.0933949 -0.197731 0)
(-0.0565769 -0.175532 0)
(-0.0234234 -0.126143 0)
(-0.0044321 -0.0493682 0)
(-0.00475705 0.0588904 0)
(-0.0238288 0.1448 0)
(-0.0556873 0.197048 0)
(-0.0898829 0.219464 0)
(-0.12082 0.21825 0)
(-0.146535 0.19955 0)
(-0.166612 0.168522 0)
(-0.181429 0.129106 0)
(-0.191666 0.084121 0)
(-0.197926 0.0355563 0)
(-0.200493 -0.0150751 0)
(-0.199213 -0.0663402 0)
(-0.193445 -0.116462 0)
(-0.182131 -0.162869 0)
(-0.164029 -0.201755 0)
(-0.138196 -0.227752 0)
(-0.104706 -0.233935 0)
(-0.0657708 -0.21246 0)
(-0.0283932 -0.156307 0)
(-0.00569094 -0.0627991 0)
(-0.00609926 0.072638 0)
(-0.0284426 0.173951 0)
(-0.0630163 0.231127 0)
(-0.0971183 0.251701 0)
(-0.125073 0.245353 0)
(-0.145941 0.220614 0)
(-0.160491 0.183962 0)
(-0.170139 0.139868 0)
(-0.176365 0.091162 0)
(-0.180326 0.0395289 0)
(-0.18264 -0.0140045 0)
(-0.183275 -0.0685851 0)
(-0.181474 -0.123025 0)
(-0.175751 -0.175221 0)
(-0.164038 -0.221496 0)
(-0.144118 -0.255913 0)
(-0.114429 -0.269826 0)
(-0.0756375 -0.25213 0)
(-0.0346497 -0.1911 0)
(-0.00750867 -0.0793719 0)
(-0.00825006 0.0895837 0)
(-0.0347557 0.206701 0)
(-0.0710627 0.265828 0)
(-0.102141 0.280984 0)
(-0.123176 0.26685 0)
(-0.135174 0.234806 0)
(-0.140644 0.192574 0)
(-0.142281 0.14487 0)
(-0.142422 0.0942332 0)
(-0.142766 0.0417883 0)
(-0.144262 -0.0121374 0)
(-0.147053 -0.0674833 0)
(-0.150381 -0.12392 0)
(-0.152487 -0.180197 0)
(-0.150565 -0.233271 0)
(-0.140984 -0.277189 0)
(-0.119952 -0.30189 0)
(-0.0853829 -0.292505 0)
(-0.0426102 -0.230564 0)
(-0.0102514 -0.100164 0)
(-0.0118246 0.111318 0)
(-0.0435465 0.242988 0)
(-0.0790016 0.298443 0)
(-0.101859 0.302991 0)
(-0.110146 0.278029 0)
(-0.108085 0.237849 0)
(-0.100404 0.190888 0)
(-0.0910868 0.141527 0)
(-0.0831456 0.0915792 0)
(-0.0786175 0.0413408 0)
(-0.0786615 -0.00970995 0)
(-0.0836061 -0.062418 0)
(-0.0928706 -0.117488 0)
(-0.104744 -0.174869 0)
(-0.116081 -0.232785 0)
(-0.122082 -0.286193 0)
(-0.116426 -0.324583 0)
(-0.0928854 -0.329562 0)
(-0.0525468 -0.273866 0)
(-0.0144737 -0.126769 0)
(-0.0175856 0.140475 0)
(-0.0550064 0.281526 0)
(-0.0834382 0.323613 0)
(-0.0892597 0.310933 0)
(-0.0768714 0.272617 0)
(-0.0549585 0.224816 0)
(-0.0304072 0.175419 0)
(-0.00797338 0.127541 0)
(0.00924468 0.0817513 0)
(0.0193412 0.037327 0)
(0.0212307 -0.00709779 0)
(0.014457 -0.0531888 0)
(-0.000770946 -0.102641 0)
(-0.0232853 -0.156763 0)
(-0.0503843 -0.21563 0)
(-0.0770163 -0.276335 0)
(-0.0948975 -0.329808 0)
(-0.09279 -0.355977 0)
(-0.0635353 -0.318114 0)
(-0.0206695 -0.16151 0)
(-0.0254233 0.181591 0)
(-0.0658928 0.317495 0)
(-0.0738343 0.330718 0)
(-0.049051 0.2944 0)
(-0.00709634 0.242968 0)
(0.0391086 0.191033 0)
(0.0819557 0.143745 0)
(0.117311 0.101855 0)
(0.143057 0.0643196 0)
(0.158131 0.0294484 0)
(0.161929 -0.00470408 0)
(0.154012 -0.0402556 0)
(0.134076 -0.0795086 0)
(0.102213 -0.124883 0)
(0.0595925 -0.178485 0)
(0.00977538 -0.240678 0)
(-0.0391976 -0.306563 0)
(-0.0724146 -0.35903 0)
(-0.0702541 -0.355866 0)
(-0.0278958 -0.207994 0)
(-0.0294416 0.238953 0)
(-0.0607077 0.335821 0)
(-0.0222566 0.300263 0)
(0.0498627 0.239602 0)
(0.126457 0.182254 0)
(0.195378 0.134621 0)
(0.252181 0.096651 0)
(0.295615 0.0662089 0)
(0.325803 0.0408863 0)
(0.343193 0.0185261 0)
(0.348004 -0.00281211 0)
(0.339995 -0.0250552 0)
(0.318382 -0.0503768 0)
(0.281913 -0.0814782 0)
(0.229307 -0.121769 0)
(0.160448 -0.174946 0)
(0.078707 -0.242739 0)
(-0.00384124 -0.318612 0)
(-0.0546466 -0.368356 0)
(-0.0282524 -0.267187 0)
(0.00869009 0.281514 0)
(0.0203503 0.29505 0)
(0.138875 0.210964 0)
(0.264073 0.143326 0)
(0.363728 0.0969511 0)
(0.439362 0.0655038 0)
(0.495354 0.0439651 0)
(0.535132 0.0286513 0)
(0.561422 0.0170297 0)
(0.576097 0.00739797 0)
(0.580101 -0.00149319 0)
(0.573463 -0.0107612 0)
(0.555232 -0.0216934 0)
(0.523306 -0.0361309 0)
(0.474266 -0.0570273 0)
(0.403378 -0.0891475 0)
(0.304328 -0.139532 0)
(0.172889 -0.216257 0)
(0.0416306 -0.311578 0)
(0.0190604 -0.29955 0)
(0.300197 0.145906 0)
(0.396903 0.127472 0)
(0.557418 0.0761082 0)
(0.674395 0.0437279 0)
(0.743708 0.0255589 0)
(0.786819 0.0152174 0)
(0.814989 0.0091832 0)
(0.833314 0.00548314 0)
(0.844633 0.00300932 0)
(0.85055 0.00114291 0)
(0.851823 -0.000494097 0)
(0.848565 -0.00219945 0)
(0.84025 -0.00431621 0)
(0.825491 -0.00739953 0)
(0.801554 -0.01251 0)
(0.76323 -0.0217566 0)
(0.698815 -0.0392757 0)
(0.583776 -0.0726539 0)
(0.416377 -0.1278 0)
(0.309418 -0.149277 0)
)
;

boundaryField
{
    movingWall
    {
        type            fixedValue;
        value           uniform (1 0 0);
    }
    fixedWalls
    {
        type            noSlip;
    }
    frontAndBack
    {
        type            empty;
    }
}


// ************************************************************************* //
