/*--------------------------------*- C++ -*----------------------------------*\
  =========                 |
  \\      /  F ield         | OpenFOAM: The Open Source CFD Toolbox
   \\    /   O peration     | Website:  https://openfoam.org
    \\  /    A nd           | Version:  8
     \\/     M anipulation  |
\*---------------------------------------------------------------------------*/
FoamFile
{
    version     2.0;
    format      ascii;
    class       volVectorField;
    location    "89";
    object      U;
}
// * * * * * * * * * * * * * * * * * * * * * * * * * * * * * * * * * * * * * //

dimensions      [0 1 -1 0 0 0 0];

internalField   nonuniform List<vector> 
2844
(
(1.00004 -0.00315962 0.000264604)
(1.02345 -0.00161594 4.82039e-05)
(1.0281 -0.0205451 -0.000212491)
(1.06872 -0.00759243 -0.00061428)
(1.08104 -0.0162679 -0.000171515)
(1.08003 -0.00858934 0.000390099)
(1.05882 0.00518694 0.000246869)
(1.0679 -0.0107541 0.0005102)
(1.01432 0.00870256 -0.000314413)
(1.00621 0.0135777 0.000325435)
(0.949028 0.00448218 -0.000336211)
(0.932164 0.00242195 -6.36365e-05)
(0.874846 -0.0136592 0.000719144)
(0.859722 -0.0260196 -0.000272612)
(0.857785 -0.0486194 -0.000359904)
(0.941547 -0.038771 0.00036667)
(0.975178 -0.037659 -0.000378404)
(1.00385 -0.0382344 4.87862e-05)
(1.05903 -0.00731162 0.000190192)
(1.04017 -0.0166474 0.000121885)
(1.00194 -0.0210399 0.00032557)
(1.02848 -0.0226823 0.00107003)
(1.02283 -0.0117185 -0.000570753)
(1.08148 -0.0282015 -0.00134347)
(1.08763 0.00940485 -0.00126284)
(1.10358 0.0316305 0.000154126)
(1.06188 -0.00166353 0.00212399)
(1.07451 0.0427582 0.00118591)
(1.04597 0.0433025 -0.000613422)
(0.997897 0.0399837 0.00152377)
(0.967794 0.0554638 -0.000426222)
(0.92604 0.0550476 -0.000568971)
(0.835442 0.0701362 0.000289519)
(0.849925 0.040006 -0.000367095)
(0.845524 -0.00890112 -0.000326046)
(0.95756 -0.0541264 -0.000286023)
(0.982386 -0.00387104 -0.0013777)
(1.04942 -0.0214288 0.000633374)
(1.10149 -0.0258574 0.00103361)
(1.03066 0.028585 -0.000251762)
(0.96663 -0.0326863 -0.000615568)
(1.0714 -0.031122 0.00223054)
(1.05067 -0.0579924 0.00378747)
(1.11876 -0.0483273 -0.00700272)
(1.12967 -0.0229047 -0.00732245)
(1.13174 0.017621 0.00175936)
(1.11064 0.0113579 0.00728801)
(1.09757 -0.010225 0.00578047)
(1.08687 0.0775717 0.0050062)
(0.981481 0.0672259 -0.000670473)
(1.00808 0.071416 -0.00467083)
(0.956817 0.111279 0.00244626)
(0.850698 0.0438565 0.00013498)
(0.885107 -0.0364623 0.00315087)
(0.784291 -0.134329 0.0046632)
(0.936988 -0.135071 -0.00415476)
(1.07573 -0.0908786 -0.00278948)
(1.03208 -0.137376 -0.00321264)
(1.06506 0.00504702 -0.00241611)
(1.06646 0.0419394 0.00211225)
(0.976152 -0.0534042 -7.37367e-05)
(1.07598 -0.10817 0.0015607)
(1.09699 -0.0763966 0.0051006)
(1.14029 -0.0151628 -0.00154516)
(1.11497 0.0565871 -0.0170067)
(1.17245 0.0421018 -0.0134744)
(1.30746 -0.0406901 0.0102076)
(1.18798 0.0183737 0.0267749)
(1.10849 0.10399 0.00752193)
(1.05181 0.116586 -0.00452176)
(1.07876 0.103086 0.0138747)
(0.916479 0.145851 0.00205063)
(0.766688 0.140616 -0.0124192)
(0.778365 0.0754053 0.0044872)
(0.650989 -0.0479234 0.00462699)
(0.905593 -0.217458 -0.0175131)
(1.1057 -0.00417487 -0.0169669)
(1.05836 0.0496171 0.0035567)
(1.18927 -0.0293015 -0.000678827)
(1.20389 0.0147199 -0.00813533)
(1.00655 -0.0781204 0.00398978)
(1.08104 -0.146658 0.00650996)
(1.2064 -0.16215 -0.0218199)
(1.19136 -0.0318214 0.00840828)
(1.08723 0.125805 0.0021657)
(1.33448 -0.0437509 -0.0211447)
(1.48255 -0.129518 0.00161324)
(1.32328 -0.0539256 0.0233319)
(1.33159 0.169161 0.0335641)
(1.11459 0.13834 0.0174225)
(1.00262 0.144086 -0.0135644)
(1.04434 0.344199 -0.0206462)
(0.921606 0.195616 0.00699161)
(0.730575 -0.0160254 0.0119869)
(0.575507 -0.292217 -0.0141124)
(0.681868 -0.338514 -0.0250465)
(0.945243 -0.0342526 -0.0229125)
(1.13538 -0.202723 -0.017112)
(1.25938 -0.0862938 -0.00237967)
(0.986655 0.0829304 0.00322719)
(0.984284 -0.162077 0.00555426)
(1.20623 -0.298999 0.00658858)
(1.17703 -0.0131343 -0.0315028)
(1.21171 0.0435004 -0.043987)
(1.4982 -0.0607143 0.0265168)
(1.40589 -0.0409204 0.0374592)
(1.53798 -0.053992 -0.0162817)
(1.79061 -0.155278 -0.00276094)
(1.44502 -0.0686028 0.055134)
(1.24705 0.315941 0.0418015)
(1.02492 0.30046 -0.0229403)
(1.32076 0.361193 -0.0267219)
(1.02959 0.399065 0.0192418)
(0.787889 0.304001 -0.0200427)
(0.632573 0.178732 -0.0172597)
(0.440249 -0.289436 0.00448441)
(0.805284 -0.127732 -0.00299005)
(0.879822 -0.0530479 -0.0119937)
(0.998598 0.144374 -0.0314841)
(1.11722 0.237814 -0.0200592)
(0.931041 -0.267123 0.0417151)
(1.20036 -0.321755 -0.0648797)
(1.4098 -0.0122551 -0.0281095)
(1.44055 0.0472885 0.0585251)
(1.87699 -0.235501 0.013878)
(1.66451 -0.151775 -0.0042227)
(1.64485 -0.130425 -0.0138731)
(1.4525 -0.177953 -0.0409362)
(1.85472 0.0819247 -0.0435879)
(1.72065 0.222833 0.0418238)
(1.01682 0.222746 0.0784573)
(0.728762 0.510914 0.0318286)
(0.56313 0.494953 -0.0323528)
(0.693757 0.415407 -0.0492422)
(0.455114 0.0603382 -0.00673954)
(0.373769 -0.562211 0.0121306)
(0.519421 -0.387063 -0.000429118)
(0.664482 -0.314657 0.00444231)
(0.907911 0.0291681 0.0137881)
(1.02828 0.18884 0.00323743)
(0.799773 -0.456458 0.0169535)
(0.932063 -0.131604 0.0335402)
(1.65909 -0.391673 0.0967512)
(1.83475 -0.961688 0.0397963)
(1.8334 -0.284377 -0.0374132)
(1.46389 0.0965326 -0.0231763)
(1.4333 0.266501 -0.0806082)
(1.40528 0.119272 -0.0299602)
(1.78961 0.157368 -0.053426)
(1.73766 0.44507 -0.0658412)
(1.68601 0.47644 0.0858697)
(1.38205 0.586172 0.0883309)
(1.09129 0.667939 -0.0660071)
(1.25623 0.667892 -0.0409776)
(1.28496 0.645363 0.0459744)
(1.17658 -0.238379 0.024774)
(0.822542 -0.387071 0.0397866)
(0.742506 -0.401194 0.0200408)
(0.992552 -0.310438 0.00756265)
(1.15581 0.077521 0.015557)
(1.05689 -0.24212 0.0648853)
(-0.231169 -0.901804 0.0961714)
(0.227671 -1.84339 -0.0369824)
(-0.00949067 -0.0139768 -0.0417525)
(0.318035 0.020242 0.0304723)
(0.73824 -0.0104807 -0.00808463)
(1.19933 0.503493 -0.0244681)
(1.52135 0.440599 0.0394543)
(1.60299 0.699668 0.00251351)
(1.27614 0.78243 -0.019686)
(1.35839 0.571234 0.0358596)
(1.31072 0.175587 -0.0222721)
(1.34761 -0.230178 -0.102655)
(1.31249 -0.470174 -0.0183617)
(1.12423 -0.651172 0.0379757)
(1.13845 -0.444665 -0.0413418)
(1.11192 -0.0847959 -0.038207)
(0.927154 0.0740299 -0.0168216)
(1.82087 -0.016124 0.0880332)
(-0.375165 -0.515149 -0.404186)
(0.0941222 -0.00286951 -0.0160627)
(-0.323166 -0.380614 0.0197732)
(-0.158571 -0.536719 -0.0473399)
(0.500118 0.107045 -0.0664705)
(0.739818 0.181234 -0.029072)
(0.91664 0.620058 0.0533362)
(1.00229 0.830969 0.115126)
(1.42035 0.792157 0.01612)
(1.45169 1.0007 -0.120276)
(1.22397 0.399786 -0.0405359)
(1.36807 -0.126442 -0.0203838)
(1.34452 -0.610355 0.0236084)
(1.29586 -0.0585308 0.0298268)
(1.06745 0.36974 -0.0111485)
(0.458172 0.0574212 -0.0757134)
(1.14902 0.164324 0.0120217)
(0.0594462 0.391366 -0.00810009)
(-0.348996 -0.140481 0.0456768)
(-0.346914 -0.325199 -0.0759441)
(0.146046 0.325197 -0.0383778)
(0.137319 0.249798 0.0140791)
(0.555956 0.344656 0.0618286)
(1.23837 0.257327 -0.0309765)
(1.43342 0.621909 -0.126102)
(1.29657 0.973805 0.00126492)
(1.10001 -0.295242 0.0975872)
(1.03825 -0.574264 0.0238019)
(0.951596 -0.830655 -0.0315331)
(1.07365 -0.59768 0.0237106)
(0.974417 0.0890154 0.0230945)
(1.48249 0.0525513 -0.0548574)
(1.03192 0.619326 0.00421925)
(0.181492 1.32682 -0.0801033)
(0.0700353 0.383412 -0.0230801)
(0.713409 -0.570861 0.0494884)
(-0.101146 -0.450515 0.00749227)
(0.319873 0.0218099 -0.0590342)
(0.309243 -0.064259 -0.036786)
(0.727902 0.159007 -0.154369)
(1.14401 0.818204 -0.247488)
(1.09155 1.44727 -0.139672)
(1.20362 0.580582 0.0524351)
(1.2598 -0.366188 -0.00414868)
(1.20397 -0.299219 -0.0358765)
(1.14298 -0.368517 -0.036693)
(1.01473 -0.0970399 -0.000384624)
(0.960375 0.322047 0.0150337)
(0.947197 0.203957 -0.0238521)
(1.11899 0.28842 0.0660684)
(0.834584 1.2615 -0.0627752)
(-0.020115 0.0462222 0.00689033)
(0.774015 -0.0304644 0.0273496)
(1.34578 -0.243271 -0.13278)
(1.46613 -0.452159 0.0875438)
(0.79401 -0.102148 0.110131)
(0.329464 -0.168573 0.0125975)
(0.493367 0.591958 -0.192018)
(0.634478 1.29071 -0.190288)
(0.873193 0.954179 0.00106533)
(1.41282 0.157113 0.0451408)
(1.35406 -0.309427 0.00979808)
(1.34099 -0.304353 -0.0463624)
(1.33858 -0.563845 -0.0722357)
(1.50764 -0.423584 -0.0404047)
(1.28474 0.116597 0.00134129)
(0.91235 0.0872793 0.0271783)
(1.11273 0.357842 -0.00859293)
(1.26157 0.0860849 0.00200182)
(1.81016 0.532721 0.0514497)
(2.13593 0.161064 -0.0154337)
(1.68856 -0.210101 0.00754683)
(1.74471 0.00529808 0.0411946)
(1.54973 -0.314542 0.0551753)
(1.00273 -0.432425 0.0233675)
(0.911869 0.110302 -0.0115774)
(1.13374 -0.267913 0.0592613)
(0.60097 0.241645 0.109399)
(0.76872 0.937447 0.0522372)
(1.18744 0.499385 0.0522561)
(1.39451 -0.0704555 0.033849)
(1.00684 -0.335803 0.0454889)
(0.681173 -0.0187016 0.0137912)
(0.531707 -0.0992369 -0.0321154)
(0.749403 0.176277 -0.05231)
(0.743268 0.45086 -0.00989509)
(0.975514 0.0409255 0.00837644)
(1.02723 0.173293 -0.00828574)
(1.24541 0.288847 -0.042447)
(1.50797 0.0821059 0.0241158)
(1.27641 -0.201139 0.0482801)
(1.47795 -0.195453 -0.0322368)
(1.58695 0.0382942 0.0194253)
(1.29666 -0.11692 0.0209798)
(1.15616 -0.340099 0.00327835)
(0.870342 -0.178817 0.0326113)
(1.05315 -0.146891 -0.0227372)
(0.962076 -0.123824 0.0357114)
(1.03476 0.118939 0.0831844)
(1.17191 0.0280046 0.0307252)
(1.43361 0.0355371 -0.0189473)
(1.43497 -0.187692 0.0168367)
(1.02043 -0.234304 0.0480828)
(0.873254 -0.421563 0.0345098)
(0.493724 -0.177908 0.0226058)
(0.601729 0.206493 0.00367527)
(0.976504 0.00384774 -0.00366812)
(1.09004 0.218912 0.00250049)
(1.13681 0.0187442 0.00852946)
(1.22296 -0.0481667 0.0063929)
(1.22563 0.04403 -0.0269072)
(1.29443 -0.0253912 -0.024831)
(1.33926 0.0145782 0.0128435)
(1.17986 -0.148958 0.013019)
(1.06637 -0.205313 0.00118928)
(0.966558 -0.123978 0.00257764)
(0.991186 -0.121107 -0.0132338)
(1.05285 0.133974 -0.00265482)
(1.07498 0.162881 0.0274534)
(0.947237 0.0123987 0.0128547)
(1.02046 -0.0388029 -0.0117555)
(1.07543 -0.0772136 -0.00813173)
(1.05641 0.0276302 0.00899807)
(0.90167 -0.0483983 0.0194917)
(0.492006 0.1602 -0.0138998)
(0.633351 0.319445 -0.032846)
(0.991692 0.0343683 -0.000729293)
(1.0328 0.0494009 0.00682107)
(1.08085 0.0641649 -0.00322691)
(1.06422 0.0708494 -0.0149175)
(1.18228 0.0353384 -0.00495416)
(1.19206 -0.0472848 0.00989131)
(1.10183 -0.045143 0.00606189)
(1.18913 -0.0369713 -0.0026671)
(1.0471 -0.136456 0.000994785)
(0.97911 -0.049324 0.00572168)
(0.932621 -0.114774 0.00605322)
(0.859696 -0.0984986 0.00379645)
(1.00518 0.0781128 -0.00326496)
(1.04298 0.0157332 -0.00140857)
(1.02395 -0.0310463 0.00507029)
(0.936154 -0.170932 0.00611696)
(0.860458 -0.0883388 -0.00247403)
(0.888131 -0.138682 0.0282971)
(0.599227 0.119043 0.00720931)
(0.758985 0.292943 -0.0214845)
(0.994537 -0.00316001 0.000854682)
(1.02768 0.0592748 0.00061933)
(1.02483 0.012777 -0.00399845)
(1.09815 0.0357312 9.50105e-05)
(1.1212 0.0367291 0.00387936)
(1.11893 -0.0377601 0.0028446)
(1.0526 -0.0207526 -0.00151177)
(1.09502 -0.0393379 0.000190579)
(1.02947 -0.0498919 0.00182792)
(0.981309 -0.0798679 0.000714857)
(0.982861 -0.0440611 -0.00247996)
(0.917477 0.0395817 -0.00112582)
(0.936767 0.0239175 0.00269876)
(0.98407 0.029134 -0.00221798)
(1.01225 0.0336136 -0.00129101)
(0.983272 -0.00148275 -0.00144368)
(0.920765 0.0747956 -2.14534e-05)
(0.942013 -0.0436368 0.0108045)
(0.773003 0.125724 0.0193013)
(0.894282 0.243064 0.00949819)
(0.983342 0.00631921 -8.34142e-06)
(1.01764 0.0173007 0.000133507)
(1.0345 0.0313645 -0.000917821)
(1.04594 0.0271869 0.000763144)
(1.07868 0.00309959 0.00105896)
(1.07131 -0.0184439 -0.000636316)
(1.04902 -0.0127538 7.56334e-05)
(1.05041 -0.0345882 0.00049776)
(0.999638 -0.0604294 -0.000753835)
(0.989811 -0.0186208 0.000463838)
(0.914098 -0.0472652 0.00107725)
(0.917382 -0.0351981 -0.000788936)
(0.942448 -0.000381669 -6.6657e-05)
(0.927039 -0.019846 -0.000292028)
(0.947488 -0.0276049 0.00154336)
(0.916881 -0.0792297 -0.00190225)
(0.91307 -0.0475238 0.00232091)
(0.926692 -0.0581772 -0.00201889)
(0.839543 0.00305871 0.00796449)
(0.95138 0.0556924 0.0126286)
(0.989786 -0.00254124 -9.86001e-05)
(1.01403 0.011365 0.000128902)
(1.02175 -0.00248452 -8.75485e-05)
(1.0456 -6.87652e-05 0.000306708)
(1.0591 0.00756105 -7.53057e-06)
(1.06136 -0.00243557 -6.46923e-05)
(1.0395 -0.0021694 -8.29931e-05)
(1.04716 0.000743009 7.8941e-05)
(0.989559 0.00384071 0.000233281)
(0.975553 -0.0142634 0.000144695)
(0.944106 0.00345964 -0.000103474)
(0.923851 0.0247165 -0.000209579)
(0.935858 0.0128534 0.000263526)
(0.933986 0.026673 -0.000280751)
(0.948967 0.0302794 0.000256381)
(0.932002 0.0367744 -0.000612605)
(0.906804 0.0463833 0.000962597)
(0.923407 0.0209615 -0.00121457)
(0.873688 0.0440587 0.00335418)
(0.952678 0.0516475 0.00567419)
(1.00033 -0.00318056 0.000497836)
(1.02292 -0.000940784 0.0001675)
(1.02813 -0.0210994 -0.000617567)
(1.06872 -0.00775568 -0.00121098)
(1.08152 -0.0166451 -0.000294939)
(1.07976 -0.00847639 0.0007427)
(1.05893 0.00610491 0.000421689)
(1.06803 -0.0113742 0.000679047)
(1.01353 0.0095928 -0.000697522)
(1.00726 0.0131923 0.000405277)
(0.948111 0.00453492 -0.000617461)
(0.932173 0.00264537 -4.92386e-05)
(0.875915 -0.0142897 0.00123656)
(0.858608 -0.0259209 -0.000427959)
(0.858284 -0.0487947 -0.00149203)
(0.94226 -0.0391822 -0.000931819)
(0.974957 -0.037268 -0.00162355)
(1.00391 -0.0379317 -0.000564015)
(1.05908 -0.00714133 6.29799e-06)
(1.04017 -0.0166521 7.81729e-05)
(1.00378 -0.0184032 0.000654224)
(1.02501 -0.0226483 0.00223696)
(1.02462 -0.0134334 -0.001719)
(1.0818 -0.0338142 -0.003013)
(1.08962 0.00841469 -0.00229771)
(1.10387 0.0353531 2.57456e-05)
(1.05889 -0.000596596 0.00310689)
(1.07733 0.0486792 0.00103895)
(1.04333 0.039134 -0.000925539)
(1.00349 0.0431563 0.00243465)
(0.963285 0.0531125 -0.00187598)
(0.927506 0.0526537 -0.00147182)
(0.841013 0.0782949 0.000709336)
(0.844117 0.0380947 -0.000333545)
(0.850049 -0.0129727 -0.00257371)
(0.962518 -0.0492549 -0.00579289)
(0.981439 -0.00675456 -0.00537743)
(1.04971 -0.0212881 -0.00083579)
(1.10202 -0.0242178 0.000550605)
(1.0315 0.0297832 -0.000713674)
(0.974582 -0.0284948 -0.000782231)
(1.05907 -0.0202682 0.00476102)
(1.04828 -0.0667411 0.00517712)
(1.12505 -0.0601536 -0.0153019)
(1.14417 -0.0343267 -0.0124894)
(1.11976 0.0226975 0.00449996)
(1.09451 0.0298955 0.011969)
(1.09927 0.000111455 0.00852924)
(1.06971 0.0713519 0.00392286)
(0.999726 0.082134 -0.00369524)
(0.994689 0.0722708 -0.00580757)
(0.960219 0.0981487 0.0047339)
(0.858869 0.0509369 -0.000370508)
(0.870551 -0.0388718 0.00340714)
(0.809844 -0.146215 0.00061752)
(0.950123 -0.130997 -0.0198541)
(1.07364 -0.0969107 -0.0186934)
(1.03755 -0.131913 -0.0137639)
(1.06746 0.0145234 -0.00882539)
(1.06744 0.0394357 0.000733851)
(0.985721 -0.0527009 0.00111489)
(1.06616 -0.0790951 0.00123597)
(1.06461 -0.058534 0.0102712)
(1.16784 -0.0940105 -0.00795672)
(1.16306 0.00540403 -0.0382853)
(1.14858 0.0877142 -0.0169708)
(1.24098 0.016944 0.0277374)
(1.13987 0.0759807 0.0370337)
(1.11035 0.132484 0.00471592)
(1.06559 0.113189 -0.00937656)
(1.0587 0.067194 0.00438876)
(0.948244 0.149406 0.00281384)
(0.781604 0.168133 -0.00199967)
(0.779927 0.0877657 0.0162361)
(0.692211 -0.0381123 0.00349217)
(0.928081 -0.228649 -0.0409504)
(1.0835 -0.0231769 -0.042253)
(1.08025 0.0206772 -0.00853331)
(1.20912 -0.044673 -0.00539134)
(1.18535 0.0377838 -0.0111896)
(1.01205 -0.0745795 0.00615583)
(1.07195 -0.08603 0.00747296)
(1.16886 -0.151519 -0.0322487)
(1.1852 -0.123946 0.0177412)
(1.20538 0.00706717 -0.011584)
(1.35738 -0.0617883 -0.0517959)
(1.3414 0.00378311 0.00933707)
(1.18279 0.14714 0.0636601)
(1.25073 0.17483 0.0732456)
(1.17004 0.138702 0.000239394)
(1.05124 0.272133 -0.0405536)
(0.97523 0.330538 -0.0369276)
(0.81558 0.109679 0.00123577)
(0.695475 -0.0119176 0.00274716)
(0.545864 -0.297813 -0.0334459)
(0.611042 -0.47636 -0.0410771)
(0.896935 -0.217263 -0.0483363)
(1.07535 -0.212913 -0.0364025)
(1.23353 -0.0528624 -0.0192359)
(1.01056 0.0371629 -0.0052981)
(1.03449 -0.123948 0.00645858)
(1.07841 -0.178025 -0.0138529)
(1.23878 -0.189648 -0.0266573)
(1.33405 -0.0762806 -0.0263212)
(1.49285 -0.122985 0.0584647)
(1.52201 -0.0039408 -0.0308264)
(1.5175 0.181392 -0.08426)
(1.44506 0.0792205 0.0688232)
(1.32713 0.0898575 0.110463)
(1.30422 0.338062 0.04797)
(1.07196 0.213586 -0.00254271)
(1.228 0.312525 -0.0442313)
(1.09587 0.500017 0.0126827)
(0.831609 0.363035 -0.0275611)
(0.500052 0.0545608 -0.0217222)
(0.358415 -0.557879 0.0159937)
(0.713385 -0.410969 -0.00532206)
(0.875138 -0.297146 -0.00982291)
(1.03934 0.0367432 -0.0662781)
(1.0559 0.257034 -0.049677)
(1.10785 -0.159731 0.0296827)
(1.05581 -0.196587 -0.0934851)
(1.42266 -0.506855 0.0289119)
(1.68986 -0.291883 0.102788)
(1.68459 -0.191661 0.063456)
(1.47174 0.150788 -0.0338732)
(1.44917 0.126672 -0.0299838)
(1.52859 0.157529 -0.112453)
(1.73556 0.372776 -0.0973369)
(1.28048 0.457766 0.109185)
(1.02837 0.251684 0.116729)
(1.1075 0.308453 0.0323596)
(1.00791 0.502854 -0.043006)
(0.914057 0.37808 -0.0627767)
(0.632946 -0.0219016 -0.0543186)
(0.467143 -0.695584 -0.0185638)
(0.547815 -0.692855 0.00644686)
(0.60962 -0.569854 0.0167804)
(0.923229 -0.212173 0.0436081)
(1.13091 0.0310358 0.015327)
(1.04005 -0.0878163 0.0367316)
(0.887434 -0.463678 0.0704531)
(1.76468 -1.05674 0.144624)
(2.01132 -0.397864 0.0451974)
(2.0031 0.159018 -0.060846)
(1.47477 0.0441204 -0.0784649)
(1.29998 0.221535 -0.0499749)
(1.29864 0.0865906 -0.152378)
(1.63765 0.298689 -0.00315252)
(1.4882 0.514584 0.0180329)
(1.82217 0.362833 -0.0845385)
(1.77441 0.558782 -0.0179764)
(1.23513 0.654886 0.00364212)
(1.18159 0.498511 -0.0545481)
(1.18997 0.521535 -0.031391)
(1.20199 -0.282201 -0.0164207)
(0.880011 -0.520497 0.0750312)
(0.882515 -0.573086 0.0493846)
(1.0562 -0.433916 0.020837)
(1.1762 0.0341556 0.031335)
(1.46745 -0.0815414 0.114632)
(0.410598 -0.822975 0.241049)
(1.25948 -1.34682 -0.156262)
(-0.181084 -0.186728 -0.0648827)
(0.103404 -0.0567181 -0.00859919)
(0.820658 0.00413182 0.0321342)
(1.09729 0.439494 -0.0599771)
(1.47668 0.442235 -0.0617199)
(1.45931 0.745318 0.0809214)
(1.34493 0.607457 0.0256442)
(1.43104 0.454412 -0.117564)
(1.31615 0.316748 -0.112792)
(1.28018 -0.349829 -0.101702)
(1.21708 -0.515198 -0.0153983)
(1.17997 -0.694075 0.0911541)
(1.26318 -0.492758 -0.0333597)
(1.10304 -0.0534222 -0.0601987)
(0.221575 0.129516 -0.0894722)
(2.60203 -0.4847 0.27219)
(0.434344 -0.713066 -0.663289)
(0.0155956 0.0306351 -0.0795577)
(-0.351232 -0.517538 0.078463)
(0.0549533 -0.5014 -0.0854621)
(0.441748 -0.0194688 -0.0939076)
(0.518729 0.0295283 -0.042046)
(1.0251 0.454242 0.0269249)
(1.3934 0.673442 -0.0889388)
(1.29548 0.773476 -0.154633)
(1.05065 0.508145 -0.045257)
(0.974886 -0.463558 0.0929474)
(1.27122 -0.488641 0.00379316)
(1.12844 -0.531233 0.0345794)
(1.32125 -0.372773 0.0918459)
(1.20126 0.119107 0.0136669)
(0.688029 -0.0846877 -0.0196091)
(-0.0275737 0.0721476 0.0721636)
(-0.00770621 0.389788 -0.0351609)
(-0.102027 -0.347844 0.105538)
(-0.236641 -0.560463 -0.0722507)
(0.244912 -0.0146271 -0.0661436)
(0.167573 -0.154776 -0.0349499)
(0.836827 0.422044 -0.229879)
(1.12383 0.902845 -0.253667)
(0.777623 0.708975 -0.0764774)
(0.945257 0.180567 0.203825)
(1.14856 -0.692564 0.212924)
(1.17405 -0.694939 0.0698114)
(1.02313 -0.721397 -0.0436572)
(1.02531 -0.586174 -0.00109883)
(0.999493 -0.0059579 0.0363809)
(1.49604 0.0960926 -0.0884965)
(0.597439 0.1038 -0.0502198)
(0.826076 1.64651 -0.0361552)
(0.171282 0.345947 -0.0953375)
(0.890422 -0.422133 -0.0386801)
(0.699151 -0.854369 0.118744)
(0.673756 -0.542302 0.0910484)
(0.533688 -0.413072 0.0778094)
(0.372592 0.434082 -0.166379)
(0.38273 0.912412 -0.162198)
(0.640394 0.682285 0.0247536)
(1.23796 0.187691 0.140849)
(1.58476 -0.450414 0.0213618)
(1.40409 -0.349584 -0.0322631)
(1.23089 -0.34284 -0.0186748)
(0.961912 -0.149056 -0.0279948)
(0.880499 0.264139 -0.0181308)
(0.985138 -0.0799975 -0.0241872)
(1.07378 0.544855 0.0464838)
(1.05546 0.678661 0.0244737)
(0.0961602 -0.0816796 0.096896)
(1.49618 -0.367953 0.0839972)
(1.45536 -0.557145 -0.0952455)
(1.38448 -0.543931 0.0141314)
(1.4223 -0.191685 0.153884)
(1.23948 -0.26133 0.139754)
(0.652034 -0.160339 0.0947345)
(0.607402 0.0802033 0.0599483)
(0.945533 -0.208112 0.094588)
(1.39361 -0.385735 0.0269251)
(1.30071 -0.724118 0.00670806)
(1.19268 -0.509619 -0.0443591)
(1.11652 -0.495015 -0.0788126)
(1.18241 -0.278015 -0.0186801)
(1.09883 0.154252 0.0122254)
(0.972705 0.0422839 0.0398671)
(0.983265 0.360566 -0.0525973)
(1.54711 0.419673 0.0431676)
(1.83876 0.275346 0.0872224)
(1.90149 -0.353613 -0.156535)
(1.6561 -0.248443 -0.00672278)
(1.64138 -0.0437432 -0.0221107)
(1.62648 -0.344852 0.0986201)
(1.11227 -0.489646 0.0966992)
(0.969007 -0.109315 0.0183969)
(1.00274 -0.0240458 0.0124088)
(0.859588 -0.0533727 0.180712)
(1.27512 0.00561756 0.174879)
(1.40666 0.0430247 0.0828519)
(1.39702 0.0101954 0.0478171)
(1.09819 -0.248592 0.110549)
(0.862372 -0.284692 0.0948246)
(0.768757 -0.476098 -0.031399)
(0.733394 -0.201452 -0.0714063)
(0.744909 0.299865 -0.00181466)
(0.984001 0.0559897 0.0165741)
(1.06628 0.133095 -0.0351715)
(1.1989 0.274899 -0.060332)
(1.43374 0.0584805 0.0591793)
(1.49959 -0.0418078 0.0724967)
(1.43889 -0.0689992 -0.11109)
(1.44285 -0.0671614 0.0178842)
(1.36186 -0.194595 0.0535133)
(1.16776 -0.258727 0.0216842)
(0.891849 -0.168892 0.0626924)
(1.10863 -0.120594 -0.0392605)
(1.05635 -0.0642614 0.00161708)
(1.08543 -0.0257131 0.0905455)
(1.14239 -0.106131 0.0239288)
(1.24736 -0.0560036 -0.0574746)
(1.27219 -0.145477 -0.00823063)
(1.06447 -0.181014 0.0698621)
(0.944349 -0.442707 0.0819572)
(0.557761 -0.263934 0.0507871)
(0.664538 0.193115 0.00145956)
(0.987577 0.00295442 -0.00624232)
(1.0653 0.169244 -0.00390364)
(1.12252 0.0660325 0.0231013)
(1.27368 0.046373 -0.00571129)
(1.27677 0.0518838 -0.0825772)
(1.28142 -0.102335 -0.060422)
(1.3153 -0.0208152 0.0382161)
(1.16644 -0.167973 0.0331672)
(1.0501 -0.252925 -0.0152867)
(1.04421 -0.153241 -0.0158277)
(1.00922 -0.15472 -0.0270143)
(0.98952 0.0954882 -0.0217332)
(1.12677 0.151299 0.0104097)
(1.07163 0.0387565 0.0132867)
(1.04867 -0.0464771 -0.000808071)
(1.01278 -0.105891 -0.00779771)
(1.06733 0.0343787 0.00403777)
(1.02535 -0.0989318 0.0333953)
(0.713836 0.0349947 -0.00285704)
(0.767554 0.258222 -0.036155)
(0.989753 0.0278399 -0.00263972)
(1.02468 0.047001 0.0163896)
(1.09803 0.0952241 -0.00435237)
(1.07645 0.0541821 -0.0386546)
(1.16483 0.00576311 -0.0282716)
(1.18601 -0.0635862 0.0184208)
(1.11146 -0.0366231 0.00689192)
(1.20239 -0.0444508 -0.0159347)
(1.02101 -0.147601 -0.000341496)
(0.949525 -0.0559163 0.00680449)
(0.945018 -0.0924036 0.00332483)
(0.878106 -0.0787545 0.00646157)
(1.01012 0.045856 -0.00526477)
(1.01181 0.030155 -0.0113862)
(1.03326 -0.0336009 0.00107129)
(0.972619 -0.159994 0.00255584)
(0.874601 -0.105289 0.00280627)
(0.924262 -0.120526 0.0281023)
(0.80348 -0.0453521 0.0334762)
(0.894907 0.0771062 0.00837798)
(0.993547 -0.00279717 0.00188783)
(1.02899 0.0584241 0.00218124)
(1.03055 0.0188351 -0.00829234)
(1.09333 0.0270874 -0.00511624)
(1.11494 0.029246 0.00300589)
(1.1234 -0.0303357 0.00577873)
(1.0574 -0.0237126 -0.00379264)
(1.09499 -0.0458902 0.00050752)
(1.02608 -0.0433386 0.00418808)
(0.98698 -0.0830674 0.00232923)
(0.979466 -0.0543566 -0.00284169)
(0.921631 0.0477673 -0.00508694)
(0.943107 0.0242092 0.00346449)
(0.984509 0.02961 -0.00356393)
(1.01115 0.0210866 0.00059425)
(0.969152 0.0169217 -0.00315603)
(0.910459 0.0508625 0.00297769)
(0.931036 -0.0159621 0.00281838)
(0.866497 0.0517963 0.0330431)
(0.952869 0.108019 0.0364684)
(0.983519 0.00737204 2.91128e-05)
(1.01785 0.0156505 0.000633131)
(1.03488 0.0322095 -0.00232032)
(1.04422 0.0242494 0.000609463)
(1.07761 0.00360375 0.00140739)
(1.07317 -0.0180406 -0.00148715)
(1.05004 -0.0121088 -9.17662e-05)
(1.04982 -0.0350941 0.00032281)
(0.998669 -0.0630433 -0.00162342)
(0.989449 -0.019914 0.000134728)
(0.914159 -0.0454248 0.00157223)
(0.91773 -0.0332289 -0.00144526)
(0.94348 -0.00337455 -0.000511364)
(0.926257 -0.0174418 -0.000844894)
(0.946327 -0.0292284 0.00157792)
(0.917984 -0.0741033 -0.00322645)
(0.914167 -0.0567283 0.00391724)
(0.925872 -0.0439065 -0.00114074)
(0.852973 -0.0270201 0.0101162)
(0.955265 0.0026716 0.0169233)
(0.989876 -0.00256951 -0.000162082)
(1.01407 0.0116253 0.000278117)
(1.02167 -0.00273731 -0.00023724)
(1.04545 -0.000126833 0.000440365)
(1.05897 0.00728891 -0.000179956)
(1.06159 -0.00200166 -0.000118752)
(1.03961 -0.00222378 -0.000281864)
(1.04724 0.000428222 0.000129857)
(0.989433 0.00425635 0.000437863)
(0.975414 -0.0141763 0.000256098)
(0.944017 0.00281122 -0.000105857)
(0.923995 0.0247959 -0.000625682)
(0.935922 0.0133743 0.00050533)
(0.933963 0.026465 -0.000544172)
(0.948888 0.0298754 0.000369971)
(0.932219 0.0371944 -0.000779381)
(0.906485 0.0456309 0.00109622)
(0.923692 0.021069 -0.00119587)
(0.87703 0.0429026 0.00446277)
(0.95223 0.0482666 0.00706323)
(1.00058 -0.00316646 0.000237446)
(1.02241 -0.000361472 0.000114758)
(1.02811 -0.0216713 -0.000402476)
(1.06883 -0.00814218 -0.000603063)
(1.0819 -0.0169079 -0.00012329)
(1.07949 -0.00845316 0.000356219)
(1.05897 0.00653174 0.00017424)
(1.06809 -0.0119625 0.000178145)
(1.01301 0.0102794 -0.000398477)
(1.00808 0.0128509 9.60195e-05)
(0.947422 0.0042656 -0.000293331)
(0.932207 0.00253404 1.4391e-05)
(0.876635 -0.0146588 0.00053461)
(0.85754 -0.025783 -0.000166999)
(0.858259 -0.0494214 -0.00114384)
(0.943052 -0.0409387 -0.00131229)
(0.975198 -0.0377149 -0.00127112)
(1.00431 -0.038083 -0.000622987)
(1.0593 -0.00731153 -0.000182002)
(1.04021 -0.0167535 -4.06868e-05)
(1.00524 -0.0160876 0.000345396)
(1.02173 -0.021972 0.00113779)
(1.02652 -0.0170961 -0.00110993)
(1.08275 -0.039244 -0.00173399)
(1.09083 0.00787879 -0.00105225)
(1.10369 0.0388408 -7.95629e-05)
(1.05707 0.000112822 0.00105237)
(1.08027 0.0513091 -0.000100802)
(1.0419 0.0343827 -0.000390563)
(1.00791 0.0443861 0.00097555)
(0.959961 0.0516228 -0.00151675)
(0.928425 0.051741 -0.0009079)
(0.84492 0.0841616 0.000409031)
(0.838888 0.0369839 5.64879e-05)
(0.851572 -0.0245872 -0.00209016)
(0.968442 -0.0601682 -0.00564699)
(0.984293 -0.0177641 -0.00426671)
(1.05181 -0.0269784 -0.00161806)
(1.10273 -0.0255068 -0.000510355)
(1.03179 0.0295889 -0.000476569)
(0.982181 -0.0240014 -0.000187309)
(1.04447 -0.00950027 0.00251103)
(1.04919 -0.0814615 0.00145979)
(1.13468 -0.0767261 -0.00830107)
(1.15472 -0.043515 -0.00537279)
(1.10852 0.0238861 0.00239818)
(1.08828 0.0368979 0.00519172)
(1.10724 -0.00203976 0.00296026)
(1.05851 0.0675515 -0.00122515)
(1.01611 0.0917008 -0.00375532)
(0.983394 0.0604258 -0.00103928)
(0.97154 0.0839086 0.00277456)
(0.873856 0.0594667 -0.00136577)
(0.856793 -0.0362184 0.00120327)
(0.817446 -0.176239 -0.00128261)
(0.962727 -0.188917 -0.0141616)
(1.08361 -0.131849 -0.0153249)
(1.05206 -0.145287 -0.0103037)
(1.07938 0.0110056 -0.00662471)
(1.07603 0.0355345 -0.00173373)
(0.996961 -0.0463048 0.00119001)
(1.04381 -0.0513094 -0.000102293)
(1.0419 -0.0683773 0.00433408)
(1.21212 -0.183626 -0.0054895)
(1.19669 -0.0275725 -0.0216059)
(1.11095 0.128211 -0.00473321)
(1.19082 0.0438148 0.0178474)
(1.12534 0.108464 0.0143754)
(1.13633 0.111157 0.00113858)
(1.12332 0.0825328 -0.0076379)
(1.0659 0.0633623 -0.0134908)
(0.929985 0.148324 -0.00189394)
(0.758668 0.182872 0.00951451)
(0.762994 0.0997246 0.0142123)
(0.703586 -0.0889502 0.00557405)
(0.900159 -0.37965 -0.0111123)
(1.05055 -0.178827 -0.0159824)
(1.11142 -0.0835298 -0.00723541)
(1.24237 -0.102617 -0.00341684)
(1.17581 0.0247177 -0.00376336)
(1.01682 -0.0506079 0.00289118)
(1.0467 -0.049722 0.00201342)
(1.14134 -0.181873 -0.0119078)
(1.21381 -0.246762 0.0105659)
(1.35479 -0.139107 -0.00681457)
(1.31592 -0.0401833 -0.0241522)
(1.15354 0.145518 -0.00123523)
(1.05762 0.196883 0.0411538)
(1.29636 0.10467 0.0484136)
(1.32132 0.102382 -0.00563868)
(1.09226 0.20609 -0.0125183)
(0.957693 0.333385 -0.0167282)
(0.843431 0.209915 -0.0170536)
(0.767256 0.0864403 -0.00712093)
(0.576283 -0.294743 -0.00951574)
(0.518816 -0.650623 -0.00203161)
(0.794054 -0.481885 -0.00292104)
(0.994049 -0.366758 -0.00212993)
(1.22404 -0.0563101 -0.0146345)
(1.04531 0.0386477 -0.0105736)
(1.02377 -0.0767577 0.00366036)
(1.02714 -0.113459 -0.0183451)
(1.22539 -0.342667 -0.00463256)
(1.33455 -0.209203 0.0206653)
(1.5403 -0.193962 0.0154799)
(1.56596 0.0741611 -0.0539281)
(1.17663 0.280766 -0.0245596)
(1.09577 0.269647 0.0639596)
(1.39592 0.256585 0.0309969)
(1.35407 0.217905 0.0137039)
(1.18202 0.176832 0.0163557)
(1.37719 0.161133 -0.0401923)
(1.39214 0.318386 -0.0149292)
(1.04267 0.301499 0.00779487)
(0.571939 0.0280911 0.00285706)
(0.368948 -0.656004 0.00658405)
(0.651384 -0.673133 0.00378019)
(0.779223 -0.553551 0.0139066)
(1.07492 -0.262956 -0.0116953)
(1.10694 0.117694 -0.0200538)
(1.07126 -0.0576941 -0.00685362)
(1.1625 -0.342137 -0.0229366)
(1.24107 -0.569982 -0.0252349)
(1.80689 -0.586377 0.0680795)
(1.77549 -0.278047 0.0999252)
(1.50812 -0.0699668 -0.0229581)
(1.60785 0.198414 -0.0302424)
(1.6247 0.415249 -0.106663)
(1.22155 0.303967 -0.0315176)
(1.27007 0.49755 0.172832)
(1.83704 0.28004 0.0865549)
(1.8311 -0.12392 -0.0180657)
(1.36314 0.439261 -0.0158746)
(1.1072 0.662741 -0.00625086)
(0.91461 0.15075 -0.0289256)
(0.652666 -0.68235 -0.0234828)
(0.628378 -0.86235 0.000540881)
(0.579579 -0.711557 0.00848776)
(0.952511 -0.535009 0.0416664)
(1.25787 -0.205416 0.0207417)
(1.18961 -0.176096 0.0117326)
(1.02784 -0.540136 0.0192466)
(1.56513 -1.08998 0.00907166)
(1.78067 -0.760501 -0.0446492)
(1.80974 -0.0115864 -0.0555401)
(1.54079 0.172565 -0.0856947)
(1.08025 0.0176146 0.0261447)
(0.894864 -0.0860123 -0.0366544)
(1.29689 0.154035 0.0175625)
(1.68195 0.480161 -0.0834606)
(1.64845 0.32501 -0.0595834)
(1.19494 0.630902 0.0797787)
(1.09973 0.717631 0.0416354)
(1.10242 0.392215 -0.0467079)
(1.05605 0.172144 -0.0316436)
(1.15135 -0.46545 -0.00586916)
(0.950298 -0.588004 0.0461966)
(1.07759 -0.706186 0.0167683)
(1.17642 -0.535827 -0.000818046)
(1.17884 -0.0268229 0.0137603)
(1.70392 -0.0801743 0.0280335)
(1.25836 -0.67902 0.186351)
(1.63163 -1.29549 -0.150325)
(-0.303488 -0.236438 -0.0166861)