/*--------------------------------*- C++ -*----------------------------------*\
  =========                 |
  \\      /  F ield         | OpenFOAM: The Open Source CFD Toolbox
   \\    /   O peration     | Website:  https://openfoam.org
    \\  /    A nd           | Version:  8
     \\/     M anipulation  |
\*---------------------------------------------------------------------------*/
FoamFile
{
    version     2.0;
    format      ascii;
    class       surfaceScalarField;
    location    "46";
    object      phi;
}
// * * * * * * * * * * * * * * * * * * * * * * * * * * * * * * * * * * * * * //

dimensions      [0 3 -1 0 0 0 0];

internalField   nonuniform List<scalar> 
22960
(
-2.195e-07
2.19326e-07
-8.23671e-07
6.04171e-07
-1.597e-06
7.73327e-07
-2.43526e-06
8.38263e-07
-3.29146e-06
8.56198e-07
-4.15038e-06
8.58922e-07
-5.00919e-06
8.58809e-07
-5.86819e-06
8.58998e-07
-6.7281e-06
8.59912e-07
-7.5895e-06
8.61395e-07
-8.45277e-06
8.63272e-07
-9.3182e-06
8.6543e-07
-1.0186e-05
8.67804e-07
-1.10564e-05
8.70356e-07
-1.19294e-05
8.73056e-07
-1.28053e-05
8.75881e-07
-1.36841e-05
8.78806e-07
-1.45659e-05
8.8181e-07
-1.54508e-05
8.84867e-07
-1.63387e-05
8.87953e-07
-1.72298e-05
8.91041e-07
-1.81239e-05
8.94103e-07
-1.9021e-05
8.97108e-07
-1.9921e-05
9.00024e-07
-2.08238e-05
9.02818e-07
-2.17293e-05
9.05455e-07
-2.26372e-05
9.07898e-07
-2.35473e-05
9.10109e-07
-2.44593e-05
9.12047e-07
-2.5373e-05
9.13673e-07
-2.6288e-05
9.14944e-07
-2.72038e-05
9.15819e-07
-2.812e-05
9.16257e-07
-2.90362e-05
9.16216e-07
-2.99519e-05
9.15658e-07
-3.08664e-05
9.14546e-07
-3.17793e-05
9.12849e-07
-3.26898e-05
9.10539e-07
-3.35974e-05
9.07598e-07
-3.45014e-05
9.04014e-07
-3.54012e-05
8.9979e-07
-3.62962e-05
8.94939e-07
-3.71857e-05
8.89494e-07
-3.80692e-05
8.83498e-07
-3.89462e-05
8.77012e-07
-3.98163e-05
8.70093e-07
-4.0679e-05
8.62765e-07
-4.1534e-05
8.54942e-07
-4.23802e-05
8.46242e-07
-4.32158e-05
8.35601e-07
-4.40363e-05
8.20501e-07
-4.48321e-05
7.95816e-07
-4.55849e-05
7.52775e-07
-4.62643e-05
6.79367e-07
-4.68383e-05
5.74e-07
-4.73905e-05
5.52239e-07
-4.84547e-05
1.06417e-06
-5.10758e-05
2.62106e-06
-6.26171e-05
1.15413e-05
2.7904e-05
-9.05211e-05
-6.17606e-07
8.36932e-07
-1.86344e-06
1.85001e-06
-3.39725e-06
2.30713e-06
-5.05233e-06
2.49334e-06
-6.75243e-06
2.55629e-06
-8.46776e-06
2.57426e-06
-1.01883e-05
2.57937e-06
-1.19114e-05
2.58209e-06
-1.36366e-05
2.58513e-06
-1.53642e-05
2.58894e-06
-1.70943e-05
2.59342e-06
-1.88273e-05
2.59845e-06
-2.05634e-05
2.60392e-06
-2.23028e-05
2.60975e-06
-2.40457e-05
2.61588e-06
-2.5792e-05
2.62224e-06
-2.7542e-05
2.62878e-06
-2.92956e-05
2.63543e-06
-3.10529e-05
2.64213e-06
-3.28138e-05
2.64881e-06
-3.45781e-05
2.6554e-06
-3.63458e-05
2.66183e-06
-3.81167e-05
2.66801e-06
-3.98906e-05
2.67386e-06
-4.16671e-05
2.67929e-06
-4.34458e-05
2.68422e-06
-4.52265e-05
2.68855e-06
-4.70085e-05
2.69218e-06
-4.87915e-05
2.69501e-06
-5.05748e-05
2.69694e-06
-5.23577e-05
2.69787e-06
-5.41396e-05
2.69772e-06
-5.59197e-05
2.69637e-06
-5.76972e-05
2.69376e-06
-5.94714e-05
2.6898e-06
-6.12413e-05
2.68443e-06
-6.3006e-05
2.67763e-06
-6.47649e-05
2.66938e-06
-6.6517e-05
2.6597e-06
-6.82616e-05
2.64868e-06
-6.99983e-05
2.63644e-06
-7.17266e-05
2.62322e-06
-7.34464e-05
2.60932e-06
-7.51581e-05
2.5952e-06
-7.68626e-05
2.58146e-06
-7.85614e-05
2.56893e-06
-8.02573e-05
2.55867e-06
-8.19544e-05
2.55205e-06
-8.3659e-05
2.55079e-06
-8.53804e-05
2.55705e-06
-8.71336e-05
2.5737e-06
-8.89434e-05
2.60559e-06
-9.08546e-05
2.66405e-06
-9.29566e-05
2.7813e-06
-9.54385e-05
3.05591e-06
-9.86677e-05
3.78144e-06
-0.000103234
5.63024e-06
-0.00011029
9.67753e-06
-0.0001194
2.0651e-05
3.58548e-05
-0.000127351
-8.05631e-07
1.64256e-06
-2.36386e-06
3.40824e-06
-4.26209e-06
4.20536e-06
-6.3002e-06
4.53146e-06
-8.39102e-06
4.64711e-06
-1.05004e-05
4.68363e-06
-1.26163e-05
4.69531e-06
-1.47353e-05
4.70101e-06
-1.68563e-05
4.70617e-06
-1.89794e-05
4.71202e-06
-2.11046e-05
4.71867e-06
-2.32322e-05
4.72601e-06
-2.53622e-05
4.73391e-06
-2.74947e-05
4.74227e-06
-2.96298e-05
4.75097e-06
-3.17675e-05
4.75993e-06
-3.39077e-05
4.76904e-06
-3.60505e-05
4.7782e-06
-3.81957e-05
4.7873e-06
-4.03431e-05
4.79622e-06
-4.24925e-05
4.80485e-06
-4.46437e-05
4.81306e-06
-4.67964e-05
4.82071e-06
-4.89502e-05
4.82766e-06
-5.11047e-05
4.83378e-06
-5.32594e-05
4.8389e-06
-5.54137e-05
4.84287e-06
-5.75671e-05
4.84553e-06
-5.97188e-05
4.84672e-06
-6.18682e-05
4.84628e-06
-6.40143e-05
4.84405e-06
-6.61565e-05
4.83988e-06
-6.82938e-05
4.83363e-06
-7.04252e-05
4.82519e-06
-7.25498e-05
4.81445e-06
-7.46667e-05
4.80135e-06
-7.6775e-05
4.78588e-06
-7.88737e-05
4.76808e-06
-8.09621e-05
4.74808e-06
-8.30395e-05
4.7261e-06
-8.51056e-05
4.70252e-06
-8.71602e-05
4.67787e-06
-8.92038e-05
4.65292e-06
-9.12374e-05
4.62876e-06
-9.32628e-05
4.60685e-06
-9.5283e-05
4.58919e-06
-9.73029e-05
4.57849e-06
-9.93292e-05
4.57844e-06
-0.000101373
4.59412e-06
-0.000103448
4.6328e-06
-0.00010558
4.70554e-06
-0.000107805
4.8309e-06
-0.000110185
5.04392e-06
-0.000112823
5.41848e-06
-0.000115886
6.11916e-06
-0.000119595
7.49039e-06
-0.000124115
1.01507e-05
-0.000129599
1.51613e-05
-0.000133724
2.4776e-05
3.68598e-05
-0.000134729
-8.84823e-07
2.52739e-06
-2.5837e-06
5.10712e-06
-4.64197e-06
6.26364e-06
-6.84405e-06
6.73353e-06
-9.09953e-06
6.90259e-06
-1.13738e-05
6.95792e-06
-1.36549e-05
6.97644e-06
-1.59392e-05
6.98523e-06
-1.82254e-05
6.99244e-06
-2.05135e-05
7.00009e-06
-2.28033e-05
7.0085e-06
-2.5095e-05
7.01763e-06
-2.73884e-05
7.02734e-06
-2.96837e-05
7.03752e-06
-3.19807e-05
7.04802e-06
-3.42795e-05
7.05872e-06
-3.65799e-05
7.06948e-06
-3.88819e-05
7.08015e-06
-4.11852e-05
7.09058e-06
-4.34896e-05
7.10062e-06
-4.57948e-05
7.11008e-06
-4.81006e-05
7.1188e-06
-5.04064e-05
7.12657e-06
-5.2712e-05
7.13321e-06
-5.50167e-05
7.13851e-06
-5.732e-05
7.14225e-06
-5.96214e-05
7.14422e-06
-6.19201e-05
7.14419e-06
-6.42153e-05
7.14194e-06
-6.65062e-05
7.13725e-06
-6.87921e-05
7.1299e-06
-7.10719e-05
7.11968e-06
-7.33447e-05
7.10643e-06
-7.56095e-05
7.08997e-06
-7.78652e-05
7.07021e-06
-8.01109e-05
7.04707e-06
-8.23456e-05
7.02057e-06
-8.45684e-05
6.99082e-06
-8.67784e-05
6.95805e-06
-8.89749e-05
6.92267e-06
-9.11577e-05
6.8853e-06
-9.33267e-05
6.84682e-06
-9.54823e-05
6.80853e-06
-9.76257e-05
6.77218e-06
-9.9759e-05
6.7402e-06
-0.000101886
6.71592e-06
-0.000104011
6.7039e-06
-0.000106143
6.71047e-06
-0.000108294
6.74455e-06
-0.00011048
6.81907e-06
-0.000112728
6.95351e-06
-0.000115076
7.17881e-06
-0.000117579
7.54699e-06
-0.000120311
8.1507e-06
-0.000123351
9.15865e-06
-0.000126722
1.08619e-05
-0.000130284
1.37131e-05
-0.00013351
1.83868e-05
-0.000134404
2.56704e-05
3.41632e-05
-0.000131708
-9.10279e-07
3.43766e-06
-2.66507e-06
6.86191e-06
-4.78754e-06
8.38611e-06
-7.0545e-06
9.00049e-06
-9.374e-06
9.22209e-06
-1.17116e-05
9.29548e-06
-1.40556e-05
9.32046e-06
-1.64025e-05
9.33218e-06
-1.87514e-05
9.34132e-06
-2.11019e-05
9.35061e-06
-2.3454e-05
9.3606e-06
-2.58077e-05
9.37127e-06
-2.81629e-05
9.38252e-06
-3.05195e-05
9.39419e-06
-3.28776e-05
9.40613e-06
-3.52371e-05
9.41817e-06
-3.75978e-05
9.43015e-06
-3.99595e-05
9.44188e-06
-4.2322e-05
9.45315e-06
-4.46852e-05
9.46378e-06
-4.70486e-05
9.47353e-06
-4.9412e-05
9.48217e-06
-5.17749e-05
9.48946e-06
-5.41368e-05
9.49515e-06
-5.64973e-05
9.49896e-06
-5.88557e-05
9.50063e-06
-6.12113e-05
9.49986e-06
-6.35635e-05
9.49637e-06
-6.59114e-05
9.48988e-06
-6.82543e-05
9.48009e-06
-7.05911e-05
9.46674e-06
-7.2921e-05
9.44955e-06
-7.52429e-05
9.42831e-06
-7.75557e-05
9.40282e-06
-7.98584e-05
9.37293e-06
-8.21499e-05
9.33858e-06
-8.44292e-05
9.29979e-06
-8.66951e-05
9.25673e-06
-8.89467e-05
9.20971e-06
-9.11834e-05
9.15929e-06
-9.34044e-05
9.1063e-06
-9.56095e-05
9.05193e-06
-9.77988e-05
8.99791e-06
-9.99732e-05
8.94657e-06
-0.000102134
8.90116e-06
-0.000104284
8.8661e-06
-0.000106428
8.84744e-06
-0.000108571
8.85354e-06
-0.000110722
8.89607e-06
-0.000112895
8.99164e-06
-0.000115106
9.16442e-06
-0.000117378
9.45068e-06
-0.000119737
9.90646e-06
-0.000122207
1.06208e-05
-0.000124783
1.17342e-05
-0.000127377
1.3456e-05
-0.000129735
1.60709e-05
-0.000131266
1.99179e-05
-0.000130707
2.51112e-05
3.08983e-05
-0.000127442
-9.15341e-07
4.35301e-06
-2.68925e-06
8.63582e-06
-4.83462e-06
1.05315e-05
-7.12485e-06
1.12907e-05
-9.46691e-06
1.15641e-05
-1.18263e-05
1.16549e-05
-1.41918e-05
1.16859e-05
-1.656e-05
1.17004e-05
-1.89301e-05
1.17114e-05
-2.13017e-05
1.17223e-05
-2.3675e-05
1.17338e-05
-2.60497e-05
1.1746e-05
-2.84259e-05
1.17588e-05
-3.08036e-05
1.17719e-05
-3.31827e-05
1.17852e-05
-3.55631e-05
1.17985e-05
-3.79446e-05
1.18117e-05
-4.03271e-05
1.18244e-05
-4.27103e-05
1.18364e-05
-4.50941e-05
1.18476e-05
-4.74781e-05
1.18575e-05
-4.98619e-05
1.1866e-05
-5.22451e-05
1.18727e-05
-5.46273e-05
1.18773e-05
-5.70079e-05
1.18796e-05
-5.93864e-05
1.1879e-05
-6.17619e-05
1.18754e-05
-6.41339e-05
1.18683e-05
-6.65015e-05
1.18575e-05
-6.88638e-05
1.18424e-05
-7.12199e-05
1.18228e-05
-7.35688e-05
1.17985e-05
-7.59095e-05
1.1769e-05
-7.82407e-05
1.17341e-05
-8.05614e-05
1.16936e-05
-8.28704e-05
1.16476e-05
-8.51665e-05
1.15959e-05
-8.74484e-05
1.15387e-05
-8.97151e-05
1.14764e-05
-9.19655e-05
1.14097e-05
-9.41987e-05
1.13395e-05
-9.64139e-05
1.12672e-05
-9.86107e-05
1.11947e-05
-0.000100789
1.1125e-05
-0.00010295
1.10616e-05
-0.000105093
1.10097e-05
-0.000107222
1.09762e-05
-0.000109339
1.09705e-05
-0.000111448
1.10056e-05
-0.000113556
1.10994e-05
-0.000115668
1.12768e-05
-0.000117791
1.15734e-05
-0.000119925
1.20401e-05
-0.000122054
1.27498e-05
-0.000124124
1.38045e-05
-0.000126005
1.53364e-05
-0.000127432
1.7498e-05
-0.000127924
2.04105e-05
-0.000126801
2.39879e-05
2.77837e-05
-0.000123686
-9.14497e-07
5.2675e-06
-2.69315e-06
1.04145e-05
-4.84505e-06
1.26834e-05
-7.14239e-06
1.35881e-05
-9.49129e-06
1.39131e-05
-1.18572e-05
1.40208e-05
-1.42289e-05
1.40576e-05
-1.66032e-05
1.40747e-05
-1.89794e-05
1.40875e-05
-2.13572e-05
1.41001e-05
-2.37366e-05
1.41133e-05
-2.61177e-05
1.41271e-05
-2.85003e-05
1.41414e-05
-3.08845e-05
1.41561e-05
-3.32702e-05
1.41709e-05
-3.56572e-05
1.41856e-05
-3.80456e-05
1.42e-05
-4.04351e-05
1.42139e-05
-4.28255e-05
1.42268e-05
-4.52166e-05
1.42386e-05
-4.7608e-05
1.42489e-05
-4.99995e-05
1.42575e-05
-5.23906e-05
1.42638e-05
-5.47808e-05
1.42676e-05
-5.71696e-05
1.42684e-05
-5.95565e-05
1.42659e-05
-6.19407e-05
1.42596e-05
-6.43215e-05
1.42492e-05
-6.66981e-05
1.42341e-05
-6.90696e-05
1.42139e-05
-7.14351e-05
1.41883e-05
-7.37935e-05
1.41568e-05
-7.61437e-05
1.41191e-05
-7.84845e-05
1.40749e-05
-8.08147e-05
1.40238e-05
-8.31329e-05
1.39658e-05
-8.54379e-05
1.39008e-05
-8.77282e-05
1.3829e-05
-9.00025e-05
1.37507e-05
-9.22593e-05
1.36665e-05
-9.44972e-05
1.35774e-05
-9.67151e-05
1.3485e-05
-9.89116e-05
1.33913e-05
-0.000101086
1.32991e-05
-0.000103237
1.32125e-05
-0.000105364
1.31366e-05
-0.000107466
1.30786e-05
-0.000109544
1.30481e-05
-0.000111596
1.30577e-05
-0.000113621
1.31245e-05
-0.000115615
1.32714e-05
-0.000117571
1.35292e-05
-0.00011947
1.39388e-05
-0.000121274
1.45536e-05
-0.000122909
1.54399e-05
-0.000124245
1.66719e-05
-0.000125062
1.83155e-05
-0.000125035
2.03837e-05
-0.000123796
2.2749e-05
2.51094e-05
-0.000121122
-9.12336e-07
6.17984e-06
-2.69063e-06
1.21928e-05
-4.84316e-06
1.48359e-05
-7.14175e-06
1.58866e-05
-9.49199e-06
1.62633e-05
-1.18591e-05
1.63879e-05
-1.42319e-05
1.64305e-05
-1.66074e-05
1.64501e-05
-1.89846e-05
1.64648e-05
-2.13636e-05
1.64791e-05
-2.37444e-05
1.6494e-05
-2.61269e-05
1.65095e-05
-2.85111e-05
1.65256e-05
-3.08971e-05
1.6542e-05
-3.32847e-05
1.65585e-05
-3.5674e-05
1.65749e-05
-3.80648e-05
1.65908e-05
-4.04569e-05
1.6606e-05
-4.28503e-05
1.66202e-05
-4.52446e-05
1.66329e-05
-4.76395e-05
1.66439e-05
-5.00349e-05
1.66528e-05
-5.24301e-05
1.6659e-05
-5.48248e-05
1.66623e-05
-5.72186e-05
1.66621e-05
-5.96107e-05
1.6658e-05
-6.20005e-05
1.66494e-05
-6.43873e-05
1.6636e-05
-6.67703e-05
1.66171e-05
-6.91485e-05
1.65922e-05
-7.15211e-05
1.65609e-05
-7.38869e-05
1.65226e-05
-7.62447e-05
1.6477e-05
-7.85933e-05
1.64235e-05
-8.09314e-05
1.63619e-05
-8.32575e-05
1.62919e-05
-8.55702e-05
1.62135e-05
-8.78677e-05
1.61265e-05
-9.01484e-05
1.60314e-05
-9.24106e-05
1.59287e-05
-9.46524e-05
1.58192e-05
-9.68718e-05
1.57045e-05
-9.9067e-05
1.55864e-05
-0.000101236
1.54678e-05
-0.000103376
1.53524e-05
-0.000105484
1.52453e-05
-0.000107559
1.5153e-05
-0.000109595
1.50845e-05
-0.000111589
1.50511e-05
-0.000113532
1.50678e-05
-0.000115414
1.51534e-05
-0.000117217
1.53323e-05
-0.000118913
1.56344e-05
-0.000120454
1.60951e-05
-0.000121767
1.67527e-05
-0.000122737
1.76421e-05
-0.000123201
1.87795e-05
-0.00012295
2.01329e-05
-0.000121784
2.15826e-05
2.29113e-05
-0.000119586
-9.09996e-07
7.08983e-06
-2.68621e-06
1.3969e-05
-4.83732e-06
1.6987e-05
-7.1351e-06
1.81844e-05
-9.48474e-06
1.86129e-05
-1.18513e-05
1.87545e-05
-1.42236e-05
1.88028e-05
-1.65985e-05
1.88251e-05
-1.89754e-05
1.88416e-05
-2.13541e-05
1.88578e-05
-2.37346e-05
1.88745e-05
-2.61171e-05
1.8892e-05
-2.85015e-05
1.89101e-05
-3.08879e-05
1.89284e-05
-3.32762e-05
1.89469e-05
-3.56664e-05
1.89651e-05
-3.80584e-05
1.89828e-05
-4.04521e-05
1.89997e-05
-4.28473e-05
1.90154e-05
-4.52439e-05
1.90294e-05
-4.76414e-05
1.90415e-05
-5.00397e-05
1.90511e-05
-5.24384e-05
1.90577e-05
-5.4837e-05
1.90609e-05
-5.72351e-05
1.90602e-05
-5.9632e-05
1.90549e-05
-6.20271e-05
1.90446e-05
-6.44197e-05
1.90286e-05
-6.6809e-05
1.90063e-05
-6.9194e-05
1.89772e-05
-7.15738e-05
1.89407e-05
-7.39472e-05
1.8896e-05
-7.6313e-05
1.88428e-05
-7.867e-05
1.87805e-05
-8.10167e-05
1.87086e-05
-8.33514e-05
1.86267e-05
-8.56726e-05
1.85346e-05
-8.79784e-05
1.84323e-05
-9.02667e-05
1.83198e-05
-9.25356e-05
1.81975e-05
-9.47825e-05
1.80662e-05
-9.70051e-05
1.7927e-05
-9.92004e-05
1.77817e-05
-0.000101365
1.76328e-05
-0.000103496
1.74834e-05
-0.000105589
1.73382e-05
-0.000107639
1.72027e-05
-0.000109639
1.70846e-05
-0.000111581
1.69932e-05
-0.000113454
1.69404e-05
-0.000115241
1.69409e-05
-0.000116921
1.70121e-05
-0.00011846
1.71736e-05
-0.000119812
1.74465e-05
-0.000120909
1.78495e-05
-0.000121659
1.83926e-05
-0.000121946
1.90666e-05
-0.000121639
1.98254e-05
-0.000120625
2.05686e-05
2.11396e-05
-0.000118853
-9.07623e-07
7.99746e-06
-2.6811e-06
1.57425e-05
-4.83e-06
1.91359e-05
-7.12617e-06
2.04806e-05
-9.47448e-06
2.09612e-05
-1.18399e-05
2.11199e-05
-1.4211e-05
2.11739e-05
-1.65849e-05
2.11989e-05
-1.89608e-05
2.12176e-05
-2.13387e-05
2.12357e-05
-2.37186e-05
2.12545e-05
-2.61007e-05
2.12741e-05
-2.84849e-05
2.12943e-05
-3.08714e-05
2.13149e-05
-3.326e-05
2.13355e-05
-3.56509e-05
2.1356e-05
-3.80439e-05
2.13758e-05
-4.04389e-05
2.13947e-05
-4.28358e-05
2.14123e-05
-4.52345e-05
2.14281e-05
-4.76346e-05
2.14416e-05
-5.0036e-05
2.14524e-05
-5.24382e-05
2.14599e-05
-5.48409e-05
2.14636e-05
-5.72435e-05
2.14628e-05
-5.96456e-05
2.1457e-05
-6.20464e-05
2.14454e-05
-6.44454e-05
2.14275e-05
-6.68416e-05
2.14025e-05
-6.92341e-05
2.13698e-05
-7.1622e-05
2.13285e-05
-7.40041e-05
2.12781e-05
-7.63791e-05
2.12178e-05
-7.87456e-05
2.11471e-05
-8.11022e-05
2.10652e-05
-8.34472e-05
2.09716e-05
-8.57785e-05
2.0866e-05
-8.80944e-05
2.07481e-05
-9.03924e-05
2.06178e-05
-9.267e-05
2.04752e-05
-9.49246e-05
2.03207e-05
-9.7153e-05
2.01554e-05
-9.93516e-05
1.99804e-05
-0.000101516
1.97976e-05
-0.000103643
1.96099e-05
-0.000105725
1.94205e-05
-0.000107757
1.92343e-05
-0.000109729
1.90569e-05
-0.000111632
1.88956e-05
-0.00011345
1.87591e-05
-0.000115167
1.86575e-05
-0.000116757
1.86021e-05
-0.000118188
1.86043e-05
-0.000119415
1.86743e-05
-0.000120384
1.88176e-05
-0.000121021
1.90303e-05
-0.000121246
1.92917e-05
-0.000120976
1.95549e-05
-0.000120147
1.97396e-05
1.97334e-05
-0.000118741
-9.05144e-07
8.9026e-06
-2.67549e-06
1.75128e-05
-4.8218e-06
2.12822e-05
-7.11593e-06
2.27747e-05
-9.46254e-06
2.33078e-05
-1.18264e-05
2.34837e-05
-1.41961e-05
2.35437e-05
-1.65687e-05
2.35715e-05
-1.89435e-05
2.35923e-05
-2.13203e-05
2.36126e-05
-2.36995e-05
2.36336e-05
-2.60809e-05
2.36555e-05
-2.84648e-05
2.36782e-05
-3.08512e-05
2.37012e-05
-3.32401e-05
2.37244e-05
-3.56316e-05
2.37474e-05
-3.80256e-05
2.37698e-05
-4.0422e-05
2.37911e-05
-4.28207e-05
2.38111e-05
-4.52217e-05
2.3829e-05
-4.76246e-05
2.38446e-05
-5.00293e-05
2.38571e-05
-5.24354e-05
2.3866e-05
-5.48425e-05
2.38707e-05
-5.72502e-05
2.38705e-05
-5.9658e-05
2.38648e-05
-6.20653e-05
2.38527e-05
-6.44713e-05
2.38335e-05
-6.68753e-05
2.38065e-05
-6.92763e-05
2.37708e-05
-7.16734e-05
2.37256e-05
-7.40653e-05
2.367e-05
-7.64508e-05
2.36034e-05
-7.88285e-05
2.35247e-05
-8.11966e-05
2.34333e-05
-8.35536e-05
2.33285e-05
-8.58972e-05
2.32097e-05
-8.82253e-05
2.30762e-05
-9.05354e-05
2.29279e-05
-9.28247e-05
2.27645e-05
-9.50901e-05
2.25861e-05
-9.73278e-05
2.23931e-05
-9.95338e-05
2.21864e-05
-0.000101703
2.19672e-05
-0.000103831
2.17373e-05
-0.00010591
2.14994e-05
-0.000107932
2.12564e-05
-0.000109888
2.10127e-05
-0.000111765
2.07729e-05
-0.000113548
2.05428e-05
-0.000115219
2.03284e-05
-0.000116753
2.01359e-05
-0.000118119
1.99703e-05
-0.000119279
1.98342e-05
-0.000120186
1.97249e-05
-0.000120787
1.96311e-05
-0.000121024
1.95283e-05
-0.000120843
1.9374e-05
-0.000120209
1.91054e-05
1.86419e-05
-0.000119117
-9.02477e-07
9.80508e-06
-2.66937e-06
1.92797e-05
-4.81275e-06
2.34256e-05
-7.10455e-06
2.50665e-05
-9.44916e-06
2.56525e-05
-1.18112e-05
2.58458e-05
-1.41793e-05
2.59118e-05
-1.65504e-05
2.59426e-05
-1.89238e-05
2.59657e-05
-2.12995e-05
2.59883e-05
-2.36777e-05
2.60118e-05
-2.60585e-05
2.60363e-05
-2.8442e-05
2.60617e-05
-3.08283e-05
2.60875e-05
-3.32174e-05
2.61136e-05
-3.56095e-05
2.61395e-05
-3.80045e-05
2.61648e-05
-4.04024e-05
2.6189e-05
-4.28031e-05
2.62118e-05
-4.52065e-05
2.62324e-05
-4.76124e-05
2.62505e-05
-5.00207e-05
2.62654e-05
-5.2431e-05
2.62763e-05
-5.48431e-05
2.62828e-05
-5.72564e-05
2.62839e-05
-5.96705e-05
2.62789e-05
-6.20849e-05
2.6267e-05
-6.44988e-05
2.62474e-05
-6.69114e-05
2.62192e-05
-6.9322e-05
2.61813e-05
-7.17293e-05
2.6133e-05
-7.41324e-05
2.60731e-05
-7.65299e-05
2.60008e-05
-7.89202e-05
2.5915e-05
-8.13018e-05
2.58149e-05
-8.36727e-05
2.56994e-05
-8.60308e-05
2.55678e-05
-8.83737e-05
2.54192e-05
-9.06988e-05
2.5253e-05
-9.30029e-05
2.50686e-05
-9.52826e-05
2.48658e-05
-9.75339e-05
2.46444e-05
-9.97521e-05
2.44046e-05
-0.000101932
2.41471e-05
-0.000104067
2.38727e-05
-0.000106151
2.35828e-05
-0.000108174
2.32792e-05
-0.000110125
2.29642e-05
-0.000111993
2.26405e-05
-0.000113761
2.2311e-05
-0.000115411
2.19783e-05
-0.000116919
2.16445e-05
-0.000118259
2.13099e-05
-0.000119397
2.09719e-05
-0.000120295
2.0623e-05
-0.000120912
2.02487e-05
-0.000121208
1.98243e-05
-0.000121147
1.93132e-05
-0.000120709
1.86667e-05
1.78264e-05
-0.000119893
-8.99569e-07
1.07046e-05
-2.66265e-06
2.10428e-05
-4.80281e-06
2.55658e-05
-7.09199e-06
2.73557e-05
-9.43434e-06
2.79948e-05
-1.17944e-05
2.82058e-05
-1.41606e-05
2.8278e-05
-1.65299e-05
2.83119e-05
-1.89018e-05
2.83376e-05
-2.12762e-05
2.83627e-05
-2.36533e-05
2.83889e-05
-2.60333e-05
2.84163e-05
-2.84162e-05
2.84446e-05
-3.08023e-05
2.84736e-05
-3.31917e-05
2.8503e-05
-3.55844e-05
2.85322e-05
-3.79804e-05
2.85608e-05
-4.03798e-05
2.85884e-05
-4.27826e-05
2.86145e-05
-4.51886e-05
2.86385e-05
-4.75978e-05
2.86597e-05
-5.001e-05
2.86775e-05
-5.24249e-05
2.86913e-05
-5.48423e-05
2.87001e-05
-5.72617e-05
2.87033e-05
-5.96827e-05
2.86999e-05
-6.21049e-05
2.86892e-05
-6.45274e-05
2.867e-05
-6.69496e-05
2.86414e-05
-6.93707e-05
2.86024e-05
-7.17895e-05
2.85518e-05
-7.42051e-05
2.84886e-05
-7.66159e-05
2.84117e-05
-7.90207e-05
2.83198e-05
-8.14175e-05
2.82117e-05
-8.38045e-05
2.80865e-05
-8.61796e-05
2.79428e-05
-8.85401e-05
2.77797e-05
-9.08832e-05
2.75961e-05
-9.32056e-05
2.73911e-05
-9.55038e-05
2.71639e-05
-9.77732e-05
2.69138e-05
-0.000100009
2.66405e-05
-0.000102206
2.63437e-05
-0.000104356
2.60233e-05
-0.000106453
2.56797e-05
-0.000108487
2.53132e-05
-0.000110448
2.49245e-05
-0.000112321
2.45143e-05
-0.000114093
2.40829e-05
-0.000115745
2.36304e-05
-0.000117256
2.31555e-05
-0.000118602
2.26553e-05
-0.000119754
2.21239e-05
-0.000120682
2.15511e-05
-0.000121355
2.09213e-05
-0.000121742
2.02114e-05
-0.000121819
1.93908e-05
-0.000121574
1.84212e-05
1.72598e-05
-0.000121007
-8.96385e-07
1.1601e-05
-2.65529e-06
2.28017e-05
-4.79189e-06
2.77024e-05
-7.07814e-06
2.9642e-05
-9.41797e-06
3.03346e-05
-1.17757e-05
3.05635e-05
-1.41398e-05
3.06421e-05
-1.65072e-05
3.06793e-05
-1.88773e-05
3.07077e-05
-2.12502e-05
3.07356e-05
-2.36261e-05
3.07647e-05
-2.6005e-05
3.07953e-05
-2.83874e-05
3.0827e-05
-3.07732e-05
3.08595e-05
-3.31627e-05
3.08924e-05
-3.55559e-05
3.09254e-05
-3.7953e-05
3.09579e-05
-4.0354e-05
3.09894e-05
-4.27589e-05
3.10194e-05
-4.51677e-05
3.10473e-05
-4.75803e-05
3.10723e-05
-4.99966e-05
3.10938e-05
-5.24164e-05
3.11111e-05
-5.48394e-05
3.11232e-05
-5.72654e-05
3.11293e-05
-5.96939e-05
3.11284e-05
-6.21244e-05
3.11197e-05
-6.45564e-05
3.11019e-05
-6.6989e-05
3.10741e-05
-6.94216e-05
3.1035e-05
-7.18531e-05
3.09833e-05
-7.42824e-05
3.09179e-05
-7.67082e-05
3.08375e-05
-7.9129e-05
3.07406e-05
-8.15431e-05
3.06258e-05
-8.39485e-05
3.04919e-05
-8.6343e-05
3.03373e-05
-8.87239e-05
3.01606e-05
-9.10883e-05
2.99605e-05
-9.34329e-05
2.97357e-05
-9.57538e-05
2.94847e-05
-9.80464e-05
2.92065e-05
-0.000100306
2.88998e-05
-0.000102526
2.85637e-05
-0.0001047
2.81972e-05
-0.000106819
2.77994e-05
-0.000108876
2.73695e-05
-0.000110858
2.69066e-05
-0.000112753
2.64095e-05
-0.000114547
2.58767e-05
-0.000116222
2.53058e-05
-0.00011776
2.46934e-05
-0.000119139
2.40341e-05
-0.000120335
2.33199e-05
-0.000121323
2.25395e-05
-0.000122079
2.16771e-05
-0.00012258
2.0712e-05
-0.000122808
1.96185e-05
-0.000122753
1.83665e-05
1.69237e-05
-0.000122417
-8.929e-07
1.24939e-05
-2.64723e-06
2.4556e-05
-4.7799e-06
2.9835e-05
-7.06292e-06
3.1925e-05
-9.39993e-06
3.26717e-05
-1.17551e-05
3.29186e-05
-1.41168e-05
3.30039e-05
-1.6482e-05
3.30446e-05
-1.88501e-05
3.30758e-05
-2.12213e-05
3.31067e-05
-2.35956e-05
3.31391e-05
-2.59735e-05
3.31731e-05
-2.8355e-05
3.32085e-05
-3.07404e-05
3.32449e-05
-3.31299e-05
3.32819e-05
-3.55236e-05
3.33191e-05
-3.79217e-05
3.3356e-05
-4.03242e-05
3.3392e-05
-4.27313e-05
3.34265e-05
-4.51429e-05
3.34589e-05
-4.75591e-05
3.34885e-05
-4.99797e-05
3.35144e-05
-5.24046e-05
3.3536e-05
-5.48336e-05
3.35522e-05
-5.72666e-05
3.35622e-05
-5.9703e-05
3.35649e-05
-6.21426e-05
3.35592e-05
-6.45846e-05
3.3544e-05
-6.70286e-05
3.35181e-05
-6.94737e-05
3.348e-05
-7.1919e-05
3.34286e-05
-7.43634e-05
3.33623e-05
-7.68056e-05
3.32797e-05
-7.92442e-05
3.31792e-05
-8.16776e-05
3.30591e-05
-8.41036e-05
3.29179e-05
-8.65201e-05
3.27537e-05
-8.89244e-05
3.25649e-05
-9.13136e-05
3.23497e-05
-9.36842e-05
3.21063e-05
-9.60323e-05
3.18328e-05
-9.83534e-05
3.15275e-05
-0.000100642
3.11886e-05
-0.000102893
3.08142e-05
-0.000105098
3.04024e-05
-0.00010725
2.99514e-05
-0.000109339
2.94591e-05
-0.000111356
2.89231e-05
-0.000113287
2.83409e-05
-0.00011512
2.77092e-05
-0.000116838
2.70239e-05
-0.000118424
2.62796e-05
-0.000119859
2.54695e-05
-0.000121123
2.45842e-05
-0.000122196
2.3612e-05
-0.000123056
2.25376e-05
-0.000123687
2.13426e-05
-0.000124074
2.00052e-05
-0.000124209
1.85014e-05
1.68062e-05
-0.000124091
-8.89095e-07
1.3383e-05
-2.63841e-06
2.63053e-05
-4.76677e-06
3.19634e-05
-7.04622e-06
3.42044e-05
-9.38008e-06
3.50055e-05
-1.17323e-05
3.52709e-05
-1.40914e-05
3.53629e-05
-1.64541e-05
3.54073e-05
-1.882e-05
3.54417e-05
-2.11891e-05
3.54759e-05
-2.35618e-05
3.55117e-05
-2.59382e-05
3.55495e-05
-2.83187e-05
3.5589e-05
-3.07035e-05
3.56297e-05
-3.30929e-05
3.56712e-05
-3.54869e-05
3.57132e-05
-3.78859e-05
3.5755e-05
-4.02899e-05
3.5796e-05
-4.26992e-05
3.58357e-05
-4.51136e-05
3.58734e-05
-4.75334e-05
3.59082e-05
-4.99584e-05
3.59395e-05
-5.23887e-05
3.59662e-05
-5.4824e-05
3.59876e-05
-5.72643e-05
3.60024e-05
-5.97091e-05
3.60097e-05
-6.21582e-05
3.60083e-05
-6.46111e-05
3.59969e-05
-6.70671e-05
3.59741e-05
-6.95256e-05
3.59386e-05
-7.19858e-05
3.58888e-05
-7.44465e-05
3.58231e-05
-7.69067e-05
3.57399e-05
-7.93649e-05
3.56374e-05
-8.18194e-05
3.55136e-05
-8.42683e-05
3.53668e-05
-8.67095e-05
3.51949e-05
-8.91402e-05
3.49957e-05
-9.15576e-05
3.47671e-05
-9.39583e-05
3.45069e-05
-9.63382e-05
3.42128e-05
-9.86929e-05
3.38822e-05
-0.000101017
3.35128e-05
-0.000103305
3.3102e-05
-0.00010555
3.2647e-05
-0.000107743
3.21448e-05
-0.000109876
3.15924e-05
-0.000111939
3.09862e-05
-0.000113921
3.03223e-05
-0.000115808
2.95959e-05
-0.000117585
2.88017e-05
-0.000119239
2.79328e-05
-0.00012075
2.69812e-05
-0.000122103
2.5937e-05
-0.000123279
2.4788e-05
-0.000124262
2.352e-05
-0.000125035
2.21164e-05
-0.000125588
2.05584e-05
-0.000125914
1.88265e-05
1.69009e-05
-0.000126008
-8.8495e-07
1.4268e-05
-2.6288e-06
2.80492e-05
-4.75243e-06
3.4087e-05
-7.02792e-06
3.64799e-05
-9.3583e-06
3.73359e-05
-1.17073e-05
3.76199e-05
-1.40634e-05
3.7719e-05
-1.64233e-05
3.77672e-05
-1.87866e-05
3.7805e-05
-2.11535e-05
3.78427e-05
-2.35242e-05
3.78824e-05
-2.5899e-05
3.79243e-05
-2.82782e-05
3.79682e-05
-3.06622e-05
3.80136e-05
-3.30511e-05
3.80602e-05
-3.54454e-05
3.81074e-05
-3.78451e-05
3.81547e-05
-4.02505e-05
3.82014e-05
-4.26618e-05
3.8247e-05
-4.50791e-05
3.82907e-05
-4.75025e-05
3.83316e-05
-4.9932e-05
3.8369e-05
-5.23678e-05
3.8402e-05
-5.48096e-05
3.84294e-05
-5.72574e-05
3.84503e-05
-5.9711e-05
3.84633e-05
-6.21701e-05
3.84674e-05
-6.46343e-05
3.84611e-05
-6.71032e-05
3.84429e-05
-6.9576e-05
3.84114e-05
-7.20521e-05
3.83648e-05
-7.45304e-05
3.83014e-05
-7.70099e-05
3.82194e-05
-7.94893e-05
3.81167e-05
-8.19669e-05
3.79913e-05
-8.4441e-05
3.78409e-05
-8.69094e-05
3.76633e-05
-8.93696e-05
3.74559e-05
-9.18187e-05
3.72162e-05
-9.42533e-05
3.69416e-05
-9.66697e-05
3.66291e-05
-9.90633e-05
3.62758e-05
-0.000101429
3.58786e-05
-0.000103761
3.54341e-05
-0.000106053
3.49387e-05
-0.000108297
3.43887e-05
-0.000110484
3.37798e-05
-0.000112605
3.31075e-05
-0.00011465
3.23666e-05
-0.000116605
3.15512e-05
-0.000118458
3.06548e-05
-0.000120195
2.96696e-05
-0.0001218
2.85866e-05
-0.000123259
2.73955e-05
-0.000124555
2.60841e-05
-0.000125674
2.46389e-05
-0.000126602
2.30447e-05
-0.000127329
2.12854e-05
-0.000127847
1.93443e-05
1.72053e-05
-0.000128151
-8.80446e-07
1.51484e-05
-2.61834e-06
2.97871e-05
-4.73679e-06
3.62055e-05
-7.00793e-06
3.87511e-05
-9.33445e-06
3.96624e-05
-1.16799e-05
3.99654e-05
-1.40326e-05
4.00716e-05
-1.63894e-05
4.0124e-05
-1.87498e-05
4.01655e-05
-2.1114e-05
4.02069e-05
-2.34824e-05
4.02508e-05
-2.58552e-05
4.02972e-05
-2.82329e-05
4.03459e-05
-3.06158e-05
4.03965e-05
-3.30042e-05
4.04486e-05
-3.53983e-05
4.05016e-05
-3.77986e-05
4.05549e-05
-4.02052e-05
4.0608e-05
-4.26184e-05
4.06602e-05
-4.50384e-05
4.07107e-05
-4.74654e-05
4.07586e-05
-4.98995e-05
4.08031e-05
-5.23407e-05
4.08432e-05
-5.47892e-05
4.08779e-05
-5.72448e-05
4.09059e-05
-5.97075e-05
4.0926e-05
-6.2177e-05
4.09369e-05
-6.46531e-05
4.09372e-05
-6.71353e-05
4.09252e-05
-6.96232e-05
4.08993e-05
-7.21161e-05
4.08577e-05
-7.46132e-05
4.07985e-05
-7.71134e-05
4.07196e-05
-7.96155e-05
4.06189e-05
-8.21182e-05
4.04939e-05
-8.46196e-05
4.03423e-05
-8.71177e-05
4.01614e-05
-8.96102e-05
3.99484e-05
-9.20943e-05
3.97003e-05
-9.45669e-05
3.94141e-05
-9.70241e-05
3.90863e-05
-9.94617e-05
3.87135e-05
-0.000101875
3.82918e-05
-0.000104258
3.78172e-05
-0.000106605
3.72854e-05
-0.000108908
3.66917e-05
-0.000111159
3.60309e-05
-0.000113349
3.52977e-05
-0.000115468
3.44857e-05
-0.000117505
3.35881e-05
-0.000119447
3.25974e-05
-0.000121283
3.15049e-05
-0.000122997
3.0301e-05
-0.000124577
2.89749e-05
-0.000126007
2.75146e-05
-0.000127275
2.59072e-05
-0.000128369
2.41384e-05
-0.000129277
2.21939e-05
-0.000129992
2.0059e-05
1.77203e-05
-0.000130507
-8.75567e-07
1.6024e-05
-2.60698e-06
3.15185e-05
-4.71978e-06
3.83183e-05
-6.98614e-06
4.10174e-05
-9.30839e-06
4.19847e-05
-1.16499e-05
4.23069e-05
-1.39988e-05
4.24206e-05
-1.63521e-05
4.24773e-05
-1.87092e-05
4.25226e-05
-2.10704e-05
4.25682e-05
-2.34361e-05
4.26165e-05
-2.58067e-05
4.26677e-05
-2.81825e-05
4.27217e-05
-3.05639e-05
4.2778e-05
-3.29514e-05
4.2836e-05
-3.53452e-05
4.28954e-05
-3.77457e-05
4.29555e-05
-4.01533e-05
4.30156e-05
-4.25683e-05
4.30751e-05
-4.49908e-05
4.31332e-05
-4.74213e-05
4.3189e-05
-4.98598e-05
4.32416e-05
-5.23065e-05
4.329e-05
-5.47617e-05
4.3333e-05
-5.72252e-05
4.33694e-05
-5.96971e-05
4.33979e-05
-6.21773e-05
4.34172e-05
-6.46657e-05
4.34255e-05
-6.71619e-05
4.34214e-05
-6.96655e-05
4.3403e-05
-7.21761e-05
4.33683e-05
-7.46929e-05
4.33153e-05
-7.7215e-05
4.32417e-05
-7.97414e-05
4.31453e-05
-8.22707e-05
4.30233e-05
-8.48015e-05
4.28731e-05
-8.73318e-05
4.26917e-05
-8.98594e-05
4.2476e-05
-9.23818e-05
4.22227e-05
-9.4896e-05
4.19282e-05
-9.73984e-05
4.15887e-05
-9.9885e-05
4.12001e-05
-0.000102351
4.0758e-05
-0.000104792
4.02577e-05
-0.0001072
3.96941e-05
-0.000109571
3.90619e-05
-0.000111895
3.83549e-05
-0.000114164
3.75669e-05
-0.000116369
3.66907e-05
-0.000118499
3.57187e-05
-0.000120544
3.46422e-05
-0.000122492
3.34521e-05
-0.000124329
3.21381e-05
-0.000126043
3.0689e-05
-0.000127621
2.90929e-05
-0.000129051
2.73369e-05
-0.00013032
2.54078e-05
-0.000131419
2.32922e-05
-0.000132336
2.09769e-05
1.84498e-05
-0.000133066
-8.70294e-07
1.68943e-05
-2.59469e-06
3.32429e-05
-4.70132e-06
4.04249e-05
-6.96242e-06
4.32785e-05
-9.27997e-06
4.43022e-05
-1.16171e-05
4.4644e-05
-1.39618e-05
4.47653e-05
-1.63111e-05
4.48266e-05
-1.86646e-05
4.4876e-05
-2.10224e-05
4.4926e-05
-2.3385e-05
4.49791e-05
-2.57529e-05
4.50356e-05
-2.81264e-05
4.50952e-05
-3.05061e-05
4.51576e-05
-3.28922e-05
4.52222e-05
-3.52854e-05
4.52885e-05
-3.76859e-05
4.5356e-05
-4.00941e-05
4.54239e-05
-4.25105e-05
4.54915e-05
-4.49354e-05
4.55581e-05
-4.73691e-05
4.56227e-05
-4.98119e-05
4.56844e-05
-5.2264e-05
4.57421e-05
-5.47257e-05
4.57947e-05
-5.71972e-05
4.58408e-05
-5.96784e-05
4.58792e-05
-6.21696e-05
4.59083e-05
-6.46705e-05
4.59265e-05
-6.71811e-05
4.5932e-05
-6.9701e-05
4.59229e-05
-7.22299e-05
4.58972e-05
-7.47673e-05
4.58527e-05
-7.73124e-05
4.57868e-05
-7.98644e-05
4.56972e-05
-8.2422e-05
4.55809e-05
-8.4984e-05
4.54351e-05
-8.75487e-05
4.52564e-05
-9.01141e-05
4.50414e-05
-9.26778e-05
4.47864e-05
-9.52371e-05
4.44875e-05
-9.77887e-05
4.41403e-05
-0.000100329
4.37403e-05
-0.000102853