0 	0 	0 	0
1.57135 	-0.000957829 	0.000909232 	0
3.1427 	-0.00214583 	0.00171404 	0
4.71405 	-0.00366242 	0.00214217 	0
6.28539 	-0.00568416 	0.00199976 	0
7.85674 	-0.00851508 	0.00123811 	0
9.42809 	-0.0131798 	0.000374977 	0
10.9994 	-0.0244717 	0.00488138 	0
12.5708 	0.0355569 	0.0807159 	0
14.1421 	0.5 	0 	0
