/*--------------------------------*- C++ -*----------------------------------*\
  =========                 |
  \\      /  F ield         | OpenFOAM: The Open Source CFD Toolbox
   \\    /   O peration     | Website:  https://openfoam.org
    \\  /    A nd           | Version:  8
     \\/     M anipulation  |
\*---------------------------------------------------------------------------*/
FoamFile
{
    version     2.0;
    format      ascii;
    class       volVectorField;
    location    "18";
    object      U;
}
// * * * * * * * * * * * * * * * * * * * * * * * * * * * * * * * * * * * * * //

dimensions      [0 1 -1 0 0 0 0];

internalField   nonuniform List<vector> 
12504
(
(1.00014 -0.000695311 8.57298e-07)
(1.00355 -0.00207233 -1.05404e-06)
(1.01033 -0.00339131 -1.97617e-06)
(1.02041 -0.00460781 -1.31184e-06)
(1.03343 -0.00568448 -7.05761e-07)
(1.04896 -0.00659113 -4.78166e-07)
(1.06653 -0.00730596 -3.33164e-07)
(1.08565 -0.0078175 -1.03981e-08)
(1.10581 -0.0081259 3.46841e-07)
(1.12649 -0.00824285 6.65939e-07)
(1.14725 -0.00818999 9.06131e-07)
(1.16766 -0.00799595 1.0429e-06)
(1.18743 -0.00769257 1.06396e-06)
(1.2063 -0.0073108 9.8864e-07)
(1.22413 -0.00687776 8.48883e-07)
(1.24081 -0.00641502 6.93326e-07)
(1.25629 -0.00593869 5.44974e-07)
(1.27057 -0.00546003 4.28143e-07)
(1.28364 -0.00498685 3.2879e-07)
(1.29554 -0.00452403 2.60904e-07)
(1.30629 -0.00407467 1.96487e-07)
(1.31593 -0.00364008 1.64398e-07)
(1.3245 -0.00322098 1.2061e-07)
(1.33204 -0.00281695 1.16469e-07)
(1.3386 -0.00242778 7.85868e-08)
(1.34419 -0.00205221 9.73514e-08)
(1.34887 -0.00168986 5.07131e-08)
(1.35264 -0.00133898 9.67885e-08)
(1.35558 -0.000999436 2.73773e-08)
(1.35764 -0.000669093 1.11666e-07)
(1.35894 -0.000348467 -4.88672e-09)
(1.35937 -3.49438e-05 1.36303e-07)
(1.35914 0.000269816 -5.62539e-08)
(1.35801 0.000568835 2.20012e-07)
(1.35633 0.000859211 -1.0539e-07)
(1.35369 0.00114494 3.55003e-07)
(1.35065 0.00142055 -2.31133e-07)
(1.34653 0.0016919 5.62846e-07)
(1.34228 0.00194986 -4.69949e-07)
(1.33667 0.0022036 9.16434e-07)
(1.3314 0.00243841 -9.13065e-07)
(1.32429 0.0026693 1.52392e-06)
(1.31831 0.00287296 -1.7185e-06)
(1.30958 0.0030744 2.57527e-06)
(1.30337 0.00323708 -3.13057e-06)
(1.29278 0.00340247 4.32149e-06)
(1.28715 0.00351415 -5.317e-06)
(1.2741 0.00363839 6.57097e-06)
(1.27039 0.00369222 -6.93968e-06)
(1.25366 0.00377109 4.30752e-06)
(1.00015 -0.00210428 8.27717e-07)
(1.00362 -0.0062664 -1.11642e-06)
(1.01056 -0.010252 -2.00763e-06)
(1.02086 -0.0139282 -1.33929e-06)
(1.03417 -0.0171801 -7.39812e-07)
(1.05003 -0.0199154 -5.11393e-07)
(1.06797 -0.022068 -3.49452e-07)
(1.08748 -0.023603 2.26024e-09)
(1.10801 -0.0245213 3.85238e-07)
(1.12905 -0.0248589 7.24704e-07)
(1.15011 -0.0246826 9.75862e-07)
(1.17079 -0.0240806 1.11047e-06)
(1.19076 -0.0231509 1.11701e-06)
(1.2098 -0.0219881 1.02155e-06)
(1.22775 -0.0206745 8.64404e-07)
(1.24452 -0.0192748 6.99694e-07)
(1.26007 -0.0178372 5.50431e-07)
(1.27439 -0.016395 4.37475e-07)
(1.2875 -0.0149711 3.42808e-07)
(1.29943 -0.0135796 2.78965e-07)
(1.3102 -0.0122295 2.1764e-07)
(1.31986 -0.0109244 1.88251e-07)
(1.32845 -0.0096663 1.46287e-07)
(1.336 -0.00845374 1.43316e-07)
(1.34257 -0.0072859 1.05785e-07)
(1.34817 -0.00615911 1.24333e-07)
(1.35287 -0.00507188 7.69448e-08)
(1.35665 -0.00401927 1.21963e-07)
(1.3596 -0.00300041 5.20396e-08)
(1.36167 -0.00200941 1.33715e-07)
(1.36298 -0.00104707 1.72098e-08)
(1.36342 -0.00010659 1.51495e-07)
(1.3632 0.000808539 -4.12239e-08)
(1.36207 0.00170592 2.35595e-07)
(1.36039 0.00257847 -8.49471e-08)
(1.35775 0.00343594 3.70894e-07)
(1.35472 0.00426497 -2.0922e-07)
(1.35058 0.00507913 5.75652e-07)
(1.34633 0.00585631 -4.45063e-07)
(1.34071 0.0066171 9.23268e-07)
(1.33543 0.00732641 -8.81885e-07)
(1.32828 0.00801727 1.52099e-06)
(1.32228 0.00863539 -1.67616e-06)
(1.3135 0.00923523 2.55455e-06)
(1.30728 0.00973372 -3.06685e-06)
(1.2966 0.010221 4.27193e-06)
(1.29096 0.0105707 -5.22489e-06)
(1.27782 0.0109292 6.48414e-06)
(1.2741 0.0111071 -6.84426e-06)
(1.25725 0.0113313 4.26464e-06)
(1.00015 -0.00356258 8.44625e-07)
(1.00379 -0.0106034 -1.19471e-06)
(1.01103 -0.0173439 -2.10925e-06)
(1.0218 -0.0235598 -1.41533e-06)
(1.03569 -0.0290529 -7.93964e-07)
(1.05224 -0.0336643 -5.46568e-07)
(1.07093 -0.0372805 -3.46256e-07)
(1.09121 -0.0398416 6.12756e-08)
(1.11251 -0.0413496 5.05822e-07)
(1.13426 -0.041868 8.96293e-07)
(1.15595 -0.0415149 1.17424e-06)
(1.17716 -0.0404455 1.30149e-06)
(1.19756 -0.0388311 1.26849e-06)
(1.21693 -0.0368352 1.11771e-06)
(1.23512 -0.0345982 9.09651e-07)
(1.25208 -0.0322285 7.12451e-07)
(1.26776 -0.0298047 5.49856e-07)
(1.28218 -0.0273809 4.36328e-07)
(1.29537 -0.0249934 3.44619e-07)
(1.30735 -0.0226645 2.84573e-07)
(1.31818 -0.0204078 2.25928e-07)
(1.32787 -0.0182284 2.00291e-07)
(1.3365 -0.0161287 1.60614e-07)
(1.34409 -0.0141061 1.60616e-07)
(1.35069 -0.0121585 1.22973e-07)
(1.35632 -0.0102797 1.42983e-07)
(1.36104 -0.00846704 9.41153e-08)
(1.36485 -0.00671226 1.40467e-07)
(1.36782 -0.00501339 6.73361e-08)
(1.36991 -0.00336116 1.499e-07)
(1.37125 -0.00175588 2.91028e-08)
(1.37171 -0.000187481 1.65149e-07)
(1.3715 0.00134004 -3.56635e-08)
(1.37038 0.00283779 2.50943e-07)
(1.36872 0.0042958 -7.43897e-08)
(1.36607 0.00572777 3.91618e-07)
(1.36305 0.00711497 -2.00225e-07)
(1.35889 0.00847542 5.99832e-07)
(1.35463 0.00977839 -4.37396e-07)
(1.34896 0.0110501 9.52324e-07)
(1.34366 0.0122425 -8.77887e-07)
(1.33644 0.0133966 1.55536e-06)
(1.3304 0.0144401 -1.67595e-06)
(1.32152 0.0154396 2.59596e-06)
(1.31525 0.0162871 -3.07235e-06)
(1.30443 0.0170935 4.31615e-06)
(1.29874 0.0176963 -5.23511e-06)
(1.28541 0.018281 6.51712e-06)
(1.28167 0.0185973 -6.84321e-06)
(1.26459 0.0189581 4.26875e-06)
(1.00016 -0.00510123 8.89397e-07)
(1.00404 -0.0151811 -1.30449e-06)
(1.01176 -0.0248288 -2.28723e-06)
(1.02324 -0.0337208 -1.5497e-06)
(1.03804 -0.0415682 -8.80744e-07)
(1.05566 -0.0481382 -6.00625e-07)
(1.07551 -0.0532635 -3.32878e-07)
(1.09701 -0.0568556 1.65015e-07)
(1.11949 -0.0589181 7.12658e-07)
(1.14235 -0.059548 1.19235e-06)
(1.16502 -0.0589248 1.51637e-06)
(1.18705 -0.0572847 1.62725e-06)
(1.2081 -0.0548853 1.52121e-06)
(1.22797 -0.0519687 1.27209e-06)
(1.24654 -0.0487372 9.76296e-07)
(1.26377 -0.0453427 7.25147e-07)
(1.27966 -0.0418925 5.41924e-07)
(1.29424 -0.0384578 4.28447e-07)
(1.30755 -0.0350863 3.40949e-07)
(1.31963 -0.0318059 2.85851e-07)
(1.33053 -0.0286331 2.30854e-07)
(1.3403 -0.0255731 2.11393e-07)
(1.349 -0.0226277 1.75028e-07)
(1.35664 -0.0197919 1.79544e-07)
(1.36329 -0.0170625 1.4112e-07)
(1.36897 -0.0144303 1.63702e-07)
(1.37375 -0.0118907 1.11478e-07)
(1.3776 -0.00943239 1.60617e-07)
(1.38062 -0.00705208 8.18455e-08)
(1.38275 -0.00473673 1.68446e-07)
(1.38412 -0.00248639 3.80946e-08)
(1.38461 -0.000287005 1.83744e-07)
(1.38443 0.00185635 -3.07473e-08)
(1.38333 0.00395897 2.72062e-07)
(1.38169 0.00600747 -6.80747e-08)
(1.37904 0.00802034 4.21125e-07)
(1.37601 0.00997257 -1.98382e-07)
(1.37182 0.011888 6.37675e-07)
(1.36754 0.0137254 -4.41964e-07)
(1.3618 0.0155189 1.0037e-06)
(1.35646 0.0172045 -8.93004e-07)
(1.34913 0.0188347 1.62575e-06)
(1.34303 0.0203138 -1.70796e-06)
(1.33397 0.0217269 2.69112e-06)
(1.32763 0.0229319 -3.12961e-06)
(1.31658 0.0240712 4.43793e-06)
(1.31082 0.0249313 -5.31783e-06)
(1.29719 0.0257542 6.64143e-06)
(1.29339 0.0262073 -6.91746e-06)
(1.27595 0.0267102 4.28351e-06)
(1.00018 -0.00675826 9.49723e-07)
(1.00438 -0.0201108 -1.46083e-06)
(1.01278 -0.0328878 -2.55303e-06)
(1.02525 -0.0446556 -1.76057e-06)
(1.04132 -0.0550238 -1.02473e-06)
(1.06043 -0.0636747 -7.01979e-07)
(1.08192 -0.0703767 -3.25444e-07)
(1.10512 -0.0750063 3.16929e-07)
(1.12928 -0.0775692 1.03099e-06)
(1.15369 -0.0782045 1.65901e-06)
(1.17772 -0.07717 2.05639e-06)
(1.20087 -0.0748044 2.13209e-06)
(1.22282 -0.0714721 1.89953e-06)
(1.24336 -0.0675078 1.4917e-06)
(1.26244 -0.0631812 1.06407e-06)
(1.28004 -0.0586863 7.39388e-07)
(1.29623 -0.0541543 5.35178e-07)
(1.31103 -0.0496694 4.2838e-07)
(1.32452 -0.0452863 3.48627e-07)
(1.33675 -0.0410356 2.99648e-07)
(1.34779 -0.0369341 2.49023e-07)
(1.35767 -0.0329847 2.37945e-07)
(1.36647 -0.0291872 2.05688e-07)
(1.37421 -0.0255338 2.15385e-07)
(1.38095 -0.0220191 1.74314e-07)
(1.38672 -0.0186303 1.99087e-07)
(1.39157 -0.0153612 1.41105e-07)
(1.39549 -0.0121964 1.93382e-07)
(1.39859 -0.0091316 1.05899e-07)
(1.40077 -0.00614954 1.9724e-07)
(1.40221 -0.00324992 5.36315e-08)
(1.40274 -0.000414315 2.10459e-07)
(1.4026 0.00235084 -2.4402e-08)
(1.40152 0.00506581 3.01211e-07)
(1.3999 0.00771324 -6.07274e-08)
(1.39724 0.0103171 4.61765e-07)
(1.39421 0.0128454 -1.96892e-07)
(1.38996 0.0153288 6.90434e-07)
(1.38565 0.0177145 -4.49986e-07)
(1.37981 0.0200458 1.07521e-06)
(1.3744 0.0222404 -9.16105e-07)
(1.36689 0.024365 1.72446e-06)
(1.36069 0.0262962 -1.75511e-06)
(1.35139 0.028142 2.82569e-06)
(1.34492 0.0297195 -3.21155e-06)
(1.33353 0.0312093 4.61058e-06)
(1.32765 0.032337 -5.43572e-06)
(1.31358 0.0334105 6.8181e-06)
(1.30971 0.034004 -7.02994e-06)
(1.29173 0.0346513 4.3027e-06)
(1.0002 -0.00857518 1.02763e-06)
(1.00484 -0.0255147 -1.65402e-06)
(1.01412 -0.0417218 -2.90542e-06)
(1.0279 -0.0566383 -2.04945e-06)
(1.04566 -0.0697564 -1.2345e-06)
(1.06674 -0.0806585 -8.63686e-07)
(1.09043 -0.0890318 -3.24631e-07)
(1.11591 -0.0947077 5.38982e-07)
(1.1423 -0.0976937 1.51579e-06)
(1.16878 -0.0981825 2.38769e-06)
(1.19461 -0.0965359 2.89981e-06)
(1.21925 -0.0932279 2.9018e-06)
(1.24234 -0.0887603 2.44691e-06)
(1.26375 -0.0835791 1.78049e-06)
(1.28347 -0.0780273 1.15494e-06)
(1.30157 -0.0723367 7.35982e-07)
(1.31814 -0.0666545 5.18766e-07)
(1.33325 -0.0610712 4.31776e-07)
(1.347 -0.0556432 3.63836e-07)
(1.35945 -0.0503995 3.2124e-07)
(1.37068 -0.0453533 2.75516e-07)
(1.38074 -0.040503 2.74638e-07)
(1.38971 -0.0358448 2.45504e-07)
(1.39759 -0.0313667 2.58803e-07)
(1.40448 -0.0270604 2.11748e-07)
(1.41037 -0.0229093 2.37897e-07)
(1.41535 -0.0189049 1.71161e-07)
(1.41937 -0.0150279 2.26157e-07)
(1.42257 -0.0112722 1.26384e-07)
(1.42483 -0.00761655 2.23602e-07)
(1.42634 -0.0040598 6.25273e-08)
(1.42692 -0.000578976 2.32014e-07)
(1.42684 0.00281815 -2.53495e-08)
(1.42577 0.00615739 3.28444e-07)
(1.42416 0.00941704 -6.62352e-08)
(1.42146 0.012627 4.97877e-07)
(1.41841 0.0157479 -2.11287e-07)
(1.41408 0.0188181 7.42984e-07)
(1.4097 0.0217721 -4.76033e-07)
(1.40368 0.0246634 1.15191e-06)
(1.39816 0.0273899 -9.61554e-07)
(1.39039 0.0300335 1.83725e-06)
(1.38405 0.0324409 -1.83029e-06)
(1.37438 0.0347445 2.98734e-06)
(1.36773 0.036717 -3.32798e-06)
(1.35586 0.0385792 4.82803e-06)
(1.3498 0.0399917 -5.59497e-06)
(1.33512 0.0413294 7.04657e-06)
(1.33113 0.0420716 -7.18377e-06)
(1.3124 0.0428629 4.33067e-06)
(1.00022 -0.0105992 1.1261e-06)
(1.00543 -0.0315314 -1.86727e-06)
(1.01583 -0.0515613 -3.35554e-06)
(1.03129 -0.0699851 -2.42504e-06)
(1.05122 -0.0861595 -1.53289e-06)
(1.07488 -0.0995439 -1.112e-06)
(1.10141 -0.109719 -3.36311e-07)
(1.12987 -0.116454 8.54639e-07)
(1.15919 -0.119755 2.23753e-06)
(1.18836 -0.119884 3.50368e-06)
(1.21651 -0.117347 4.19605e-06)
(1.24301 -0.112802 4.06551e-06)
(1.26754 -0.106933 3.23442e-06)
(1.29002 -0.10032 2.14749e-06)
(1.31054 -0.0933841 1.20452e-06)
(1.32926 -0.0863846 6.7132e-07)
(1.34633 -0.0794727 4.65906e-07)
(1.36186 -0.0727356 4.20101e-07)
(1.37597 -0.0662247 3.68328e-07)
(1.38874 -0.0599613 3.32485e-07)
(1.40026 -0.0539509 2.93e-07)
(1.41058 -0.0481841 3.03049e-07)
(1.41978 -0.0426519 2.73115e-07)
(1.42788 -0.037337 2.85673e-07)
(1.43497 -0.0322278 2.27559e-07)
(1.44103 -0.0273033 2.52733e-07)
(1.44616 -0.0225523 1.72695e-07)
(1.45032 -0.0179514 2.30163e-07)
(1.45363 -0.0134927 1.1462e-07)
(1.45598 -0.00915051 2.21075e-07)
(1.45756 -0.00492286 4.04571e-08)
(1.45818 -0.000781725 2.27407e-07)
(1.45812 0.00326427 -5.27211e-08)
(1.45703 0.00724609 3.2976e-07)
(1.4554 0.0111378 -1.13703e-07)
(1.45261 0.0149753 4.98959e-07)
(1.44949 0.0187124 -2.72874e-07)
(1.44498 0.0223949 7.63694e-07)
(1.44048 0.0259446 -5.52393e-07)
(1.43419 0.029425 1.20353e-06)
(1.42849 0.0327142 -1.05981e-06)
(1.42034 0.0359084 1.9372e-06)
(1.41375 0.0388245 -1.96082e-06)
(1.40357 0.0416172 3.15579e-06)
(1.39665 0.0440154 -3.50331e-06)
(1.38411 0.0462764 5.07723e-06)
(1.3778 0.0479981 -5.81652e-06)
(1.36228 0.0496149 7.32649e-06)
(1.35812 0.0505189 -7.39418e-06)
(1.33836 0.0514492 4.36982e-06)
(1.00025 -0.0128853 1.24652e-06)
(1.00617 -0.0383197 -2.06866e-06)
(1.01797 -0.0626753 -3.92954e-06)
(1.03554 -0.0850683 -2.89657e-06)
(1.05822 -0.104702 -1.96905e-06)
(1.08516 -0.120881 -1.49445e-06)
(1.11536 -0.133035 -3.52615e-07)
(1.14766 -0.14085 1.33261e-06)
(1.18076 -0.144319 3.34567e-06)
(1.2134 -0.143793 5.21025e-06)
(1.2445 -0.139981 6.13052e-06)
(1.27333 -0.133803 5.74419e-06)
(1.29961 -0.126187 4.30985e-06)
(1.32337 -0.117881 2.53233e-06)
(1.34487 -0.109376 1.06849e-06)
(1.36436 -0.100941 4.34494e-07)
(1.38208 -0.0927103 3.17796e-07)
(1.39816 -0.0847575 3.40508e-07)
(1.41276 -0.0771199 3.02049e-07)
(1.42595 -0.0698046 2.7208e-07)
(1.43786 -0.0628034 2.4262e-07)
(1.44853 -0.0560967 2.64724e-07)
(1.45804 -0.0496681 2.27605e-07)
(1.46641 -0.0434948 2.32133e-07)
(1.47372 -0.0375611 1.56129e-07)
(1.47997 -0.0318416 1.77054e-07)
(1.48526 -0.0263221 7.90823e-08)
(1.48952 -0.0209757 1.40319e-07)
(1.49291 -0.0157916 6.40528e-09)
(1.49529 -0.0107408 1.29886e-07)
(1.49689 -0.00581901 -6.45277e-08)
(1.49746 -0.00099422 1.57031e-07)
(1.49735 0.00372613 -1.4822e-07)
(1.49613 0.00837661 2.49472e-07)
(1.49439 0.0129281 -2.64469e-07)
(1.49139 0.0174214 4.04942e-07)
(1.48808 0.0218056 -4.38143e-07)
(1.48327 0.026132 6.94495e-07)
(1.47851 0.0303125 -7.35949e-07)
(1.47181 0.0344169 1.17168e-06)
(1.46579 0.0383074 -1.26515e-06)
(1.45709 0.0420891 1.96946e-06)
(1.45015 0.0455544 -2.19533e-06)
(1.43925 0.048872 3.28281e-06)
(1.43195 0.0517353 -3.77654e-06)
(1.41852 0.0544245 5.32218e-06)
(1.41185 0.0564879 -6.12689e-06)
(1.39523 0.0583979 7.63815e-06)
(1.39082 0.0594821 -7.67627e-06)
(1.36972 0.0605389 4.4162e-06)
(1.00029 -0.0154977 1.39014e-06)
(1.00708 -0.0460616 -2.19419e-06)
(1.02061 -0.0753808 -4.67116e-06)
(1.04081 -0.102329 -3.45625e-06)
(1.06693 -0.125955 -2.65127e-06)
(1.09802 -0.145346 -2.10647e-06)
(1.13291 -0.159728 -3.98069e-07)
(1.17016 -0.168661 2.08691e-06)
(1.20814 -0.172098 5.19232e-06)
(1.24523 -0.170504 7.97565e-06)
(1.28005 -0.164886 9.03862e-06)
(1.31175 -0.156543 8.01219e-06)
(1.34012 -0.146739 5.5108e-06)
(1.36539 -0.136426 2.4905e-06)
(1.38804 -0.126145 4.7201e-07)
(1.40848 -0.116135 -9.67154e-08)
(1.427 -0.10649 -1.1524e-08)
(1.44377 -0.0972506 8.5311e-08)
(1.45897 -0.0884323 3.25348e-08)
(1.47268 -0.0800196 -5.30781e-09)
(1.48504 -0.0719855 -2.46899e-08)
(1.49608 -0.0642976 9.82858e-09)
(1.50589 -0.0569317 -4.09049e-08)
(1.51448 -0.0498594 -5.10569e-08)
(1.52196 -0.0430607 -1.48029e-07)
(1.52829 -0.0365067 -1.2995e-07)
(1.5336 -0.03018 -2.44296e-07)
(1.53782 -0.0240507 -1.72256e-07)
(1.54112 -0.018105 -3.21481e-07)
(1.54335 -0.0123111 -1.60815e-07)
(1.54476 -0.00666058 -3.55695e-07)
(1.54508 -0.00111954 -6.1135e-08)
(1.54471 0.00430906 -3.90928e-07)
(1.54315 0.00965975 -1.32414e-08)
(1.54107 0.0149041 -6.24529e-07)
(1.53764 0.0200853 1.06536e-07)
(1.53395 0.025152 -8.10612e-07)
(1.52861 0.0301558 4.28919e-07)
(1.52341 0.0350054 -1.12291e-06)
(1.51608 0.0397694 9.55912e-07)
(1.50958 0.0443035 -1.66332e-06)
(1.50012 0.0487097 1.84059e-06)
(1.49265 0.0527699 -2.60615e-06)
(1.48083 0.0566481 3.28242e-06)
(1.47301 0.0600224 -4.20328e-06)
(1.45845 0.0631679 5.4886e-06)
(1.4513 0.0656133 -6.55682e-06)
(1.43332 0.0678261 7.92959e-06)
(1.4286 0.0691157 -8.03698e-06)
(1.40584 0.0702744 4.45592e-06)
(1.00033 -0.0185119 1.56227e-06)
(1.00818 -0.0549631 -2.13104e-06)
(1.02382 -0.090054 -5.63975e-06)
(1.04727 -0.122293 -4.03579e-06)
(1.07765 -0.150621 -3.78445e-06)
(1.11399 -0.173793 -3.10457e-06)
(1.15487 -0.190746 -6.89822e-07)
(1.19851 -0.200864 3.06031e-06)
(1.24283 -0.203993 8.24394e-06)
(1.28564 -0.200759 1.26981e-05)
(1.32513 -0.192604 1.37192e-05)
(1.36031 -0.181381 1.12549e-05)
(1.3911 -0.168826 6.17957e-06)
(1.41809 -0.156129 1.07367e-06)
(1.44204 -0.143839 -1.23806e-06)
(1.46354 -0.132099 -1.34806e-06)
(1.48295 -0.120923 -8.84407e-07)
(1.50045 -0.110307 -6.69307e-07)
(1.51622 -0.100229 -7.44888e-07)
(1.53037 -0.0906426 -8.01299e-07)
(1.54303 -0.081499 -8.10249e-07)
(1.55424 -0.0727534 -7.63047e-07)
(1.56409 -0.0643747 -8.19565e-07)
(1.57259 -0.0563305 -8.2953e-07)
(1.57987 -0.0485971 -9.29452e-07)
(1.58589 -0.0411435 -8.92337e-07)
(1.59081 -0.0339493 -9.9505e-07)
(1.59455 -0.0269825 -8.84098e-07)
(1.59733 -0.0202261 -1.01332e-06)
(1.59895 -0.0136451 -7.71946e-07)
(1.59975 -0.00722713 -9.30937e-07)
(1.59938 -0.00093357 -4.8875e-07)
(1.59835 0.00523777 -9.01427e-07)
(1.59605 0.0113152 -5.95996e-07)
(1.59328 0.0172799 -1.31349e-06)
(1.58907 0.0231723 -5.21129e-07)
(1.58468 0.0289492 -1.50731e-06)
(1.57853 0.0346529 -1.58657e-07)
(1.57265 0.0402021 -1.81953e-06)
(1.56444 0.0456497 4.36272e-07)
(1.55727 0.0508634 -2.3478e-06)
(1.54684 0.0559202 1.43146e-06)
(1.53872 0.0606178 -3.27197e-06)
(1.52581 0.0650827 3.03528e-06)
(1.51736 0.0690159 -4.83926e-06)
(1.50152 0.0726373 5.46014e-06)
(1.49384 0.0755119 -7.12831e-06)
(1.47432 0.078028 8.10273e-06)
(1.46925 0.0795565 -8.46221e-06)
(1.44465 0.080778 4.46079e-06)
(1.0004 -0.0220147 1.78443e-06)
(1.00952 -0.0652517 -1.71638e-06)
(1.02768 -0.107141 -6.89143e-06)
(1.05509 -0.145582 -4.4393e-06)
(1.09073 -0.179579 -5.66555e-06)
(1.13371 -0.207305 -4.57391e-06)
(1.18225 -0.227336 -1.62671e-06)
(1.23419 -0.238751 3.85672e-06)
(1.28676 -0.241157 1.25625e-05)
(1.33696 -0.235453 2.00189e-05)
(1.38231 -0.223754 2.11427e-05)
(1.42161 -0.208706 1.63194e-05)
(1.45507 -0.192693 5.77027e-06)
(1.48377 -0.177159 -2.57893e-06)
(1.50894 -0.162566 -5.22397e-06)
(1.53136 -0.148881 -4.37691e-06)
(1.55139 -0.136002 -3.13328e-06)
(1.56923 -0.123859 -2.57542e-06)
(1.58508 -0.11238 -2.58472e-06)
(1.59905 -0.101481 -2.57077e-06)
(1.6113 -0.0910893 -2.49407e-06)
(1.62187 -0.0811524 -2.3829e-06)
(1.63089 -0.0716353 -2.39796e-06)
(1.63839 -0.0625056 -2.34651e-06)
(1.64454 -0.0537362 -2.37024e-06)
(1.64931 -0.0452966 -2.23168e-06)
(1.65291 -0.0371621 -2.22701e-06)
(1.65526 -0.0293006 -1.99022e-06)
(1.65664 -0.0216893 -1.97387e-06)
(1.65685 -0.0142898 -1.57391e-06)
(1.65627 -0.0070844 -1.56029e-06)
(1.65452 -1.98201e-05 -9.41288e-07)
(1.65218 0.00689819 -1.57557e-06)
(1.64858 0.0136954 -1.38642e-06)
(1.64462 0.0203757 -2.18707e-06)
(1.63922 0.0269676 -1.35325e-06)
(1.63379 0.033449 -2.40989e-06)
(1.62654 0.0398395 -9.8353e-07)
(1.61976 0.0460875 -2.73341e-06)
(1.61054 0.052209 -3.4381e-07)
(1.60259 0.0581123 -3.25261e-06)
(1.59117 0.0638164 7.39462e-07)
(1.58239 0.0691762 -4.14604e-06)
(1.56843 0.0742308 2.48879e-06)
(1.55942 0.0787632 -5.64605e-06)
(1.54241 0.0828645 5.13243e-06)
(1.53427 0.0862185 -7.79524e-06)
(1.51337 0.0890292 8.02601e-06)
(1.50801 0.0908393 -8.8869e-06)
(1.48175 0.0920765 4.38708e-06)
(1.00048 -0.0261005 2.12686e-06)
(1.01107 -0.0771708 -7.6757e-07)
(1.03226 -0.127165 -8.42082e-06)
(1.06445 -0.172909 -4.36565e-06)
(1.1065 -0.213941 -8.71976e-06)
(1.15791 -0.247281 -6.26226e-06)
(1.2163 -0.271175 -3.32821e-06)
(1.27911 -0.284098 4.8117e-06)
(1.34251 -0.28512 1.82225e-05)
(1.40224 -0.275658 2.89342e-05)
(1.45481 -0.258921 3.01181e-05)
(1.49869 -0.238756 2.14166e-05)
(1.53453 -0.218402 3.69363e-06)
(1.56428 -0.199474 -9.05697e-06)
(1.58979 -0.182166 -1.22109e-05)
(1.61202 -0.166176 -9.99637e-06)
(1.63135 -0.151275 -7.53143e-06)
(1.64799 -0.137324 -6.4493e-06)
(1.66221 -0.124188 -6.08858e-06)
(1.67418 -0.111735 -5.62901e-06)
(1.6841 -0.0998734 -5.15714e-06)
(1.69209 -0.0885515 -4.7496e-06)
(1.69834 -0.0777326 -4.5263e-06)
(1.70293 -0.0673871 -4.22336e-06)
(1.70611 -0.0574828 -3.99667e-06)
(1.7079 -0.0479913 -3.58826e-06)
(1.70858 -0.038878 -3.32153e-06)
(1.70807 -0.0301134 -2.8007e-06)
(1.70672 -0.0216578 -2.4697e-06)
(1.70433 -0.01348 -1.80385e-06)
(1.70135 -0.00552778 -1.43304e-06)
(1.69736 0.00224175 -1.14466e-06)
(1.69299 0.00982554 -2.02583e-06)
(1.68752 0.0172536 -1.85071e-06)
(1.68195 0.0245646 -2.67392e-06)
(1.67508 0.0317638 -1.85315e-06)
(1.66843 0.0388672 -2.98241e-06)
(1.66007 0.0458567 -1.55742e-06)
(1.65244 0.052735 -3.36632e-06)
(1.6424 0.0594557 -9.57949e-07)
(1.63391 0.0660033 -3.92751e-06)
(1.62189 0.0722986 9.95245e-08)
(1.6128 0.0783058 -4.83848e-06)
(1.59835 0.0839153 1.85542e-06)
(1.58919 0.0890657 -6.30096e-06)
(1.57168 0.0936307 4.56654e-06)
(1.56347 0.0975115 -8.30122e-06)
(1.54195 0.100607 7.61878e-06)
(1.53656 0.102751 -9.12329e-06)
(1.50953 0.103974 4.19152e-06)
(1.0006 -0.030857 2.77461e-06)
(1.0128 -0.0909755 8.88008e-07)
(1.03761 -0.150717 -9.94045e-06)
(1.07539 -0.205069 -3.77405e-06)
(1.12526 -0.255104 -1.38325e-05)
(1.18737 -0.295474 -8.00407e-06)
(1.25835 -0.324494 -6.07244e-06)
(1.33556 -0.3393 8.39029e-06)
(1.41333 -0.337997 2.82605e-05)
(1.48539 -0.322775 3.87231e-05)
(1.54624 -0.298524 3.48895e-05)
(1.5939 -0.271172 1.76179e-05)
(1.63008 -0.245202 -6.41537e-06)
(1.6582 -0.222106 -2.09525e-05)
(1.68095 -0.201445 -2.21141e-05)
(1.69955 -0.182552 -1.71978e-05)
(1.71444 -0.165095 -1.31756e-05)
(1.72598 -0.148878 -1.14331e-05)
(1.73461 -0.133691 -1.02504e-05)
(1.74068 -0.119358 -8.76236e-06)
(1.74451 -0.105778 -7.40994e-06)
(1.74633 -0.0928967 -6.34997e-06)
(1.74648 -0.0806746 -5.61923e-06)
(1.74513 -0.0690771 -4.87109e-06)
(1.74262 -0.0580614 -4.27755e-06)
(1.73904 -0.0475917 -3.52984e-06)
(1.73473 -0.0376153 -3.00089e-06)
(1.72964 -0.0280999 -2.14823e-06)
(1.72414 -0.018971 -1.6178e-06)
(1.71806 -0.0102273 -7.02193e-07)
(1.71185 -0.00171162 -5.1665e-07)
(1.70506 0.00650531 -9.50168e-07)
(1.69833 0.0145083 -1.93534e-06)
(1.69093 0.0223298 -1.58377e-06)
(1.68384 0.0300434 -2.29188e-06)
(1.67583 0.0376243 -1.48386e-06)
(1.66841 0.0451429 -2.6101e-06)
(1.65959 0.052531 -1.25968e-06)
(1.65182 0.0598675 -3.04776e-06)
(1.6419 0.067021 -7.85563e-07)
(1.63377 0.0740855 -3.69343e-06)
(1.62229 0.0808472 8.13041e-08)
(1.61391 0.087428 -4.68673e-06)
(1.6003 0.093514 1.59752e-06)
(1.59201 0.0992667 -6.18061e-06)
(1.5755 0.104265 4.05247e-06)
(1.56811 0.10871 -8.09645e-06)
(1.54767 0.112102 6.94612e-06)
(1.54281 0.114641 -8.77653e-06)
(1.51697 0.115884 3.86746e-06)
(1.00073 -0.0363349 4.13074e-06)
(1.01465 -0.106947 3.27663e-06)
(1.04376 -0.178386 -1.02906e-05)
(1.0877 -0.242924 -3.67951e-06)
(1.14725 -0.304852 -2.26498e-05)
(1.22269 -0.353982 -1.18998e-05)
(1.30955 -0.390117 -1.3732e-05)
(1.406 -0.407243 1.38747e-05)
(1.50324 -0.402536 4.7187e-05)
(1.59073 -0.378582 5.51182e-05)
(1.65852 -0.342488 3.22571e-05)
(1.70491 -0.304209 -7.68238e-06)
(1.73442 -0.270342 -3.84735e-05)
(1.7533 -0.241686 -4.53191e-05)
(1.76553 -0.216622 -3.4561e-05)
(1.77264 -0.193986 -2.14635e-05)
(1.77534 -0.173339 -1.42933e-05)
(1.77438 -0.154385 -1.1769e-05)
(1.77056 -0.13682 -9.73639e-06)
(1.7645 -0.120434 -7.29665e-06)
(1.75672 -0.105113 -5.27007e-06)
(1.74762 -0.0907882 -3.81017e-06)
(1.73768 -0.0773936 -2.81297e-06)
(1.72715 -0.0648653 -1.9206e-06)
(1.71642 -0.053132 -1.28557e-06)
(1.7056 -0.0421222 -6.2521e-07)
(1.695 -0.0317633 -2.28747e-07)
(1.68458 -0.0219701 4.65271e-07)
(1.67464 -0.0126882 7.55597e-07)
(1.66499 -0.00379474 1.32113e-06)
(1.65599 0.00471622 -7.74351e-08)
(1.64712 0.0128786 -5.43551e-07)
(1.63901 0.0208517 -8.89017e-07)
(1.63091 0.0286437 -1.67941e-07)
(1.62366 0.0363604 -6.58549e-07)
(1.61605 0.0439497 1.35632e-07)
(1.60945 0.0515414 -8.84574e-07)
(1.60196 0.0590144 3.09057e-07)
(1.59579 0.066531 -1.34819e-06)
(1.58794 0.0738679 5.77186e-07)
(1.58198 0.0812415 -2.08574e-06)
(1.57316 0.0882899 1.08703e-06)
(1.56728 0.0953128 -3.17815e-06)
(1.55677 0.101772 2.08443e-06)
(1.55103 0.108076 -4.71908e-06)
(1.53796 0.113488 3.86425e-06)
(1.5328 0.118519 -6.58635e-06)
(1.51611 0.122282 6.10944e-06)
(1.51266 0.125277 -7.33296e-06)
(1.49108 0.126709 3.43754e-06)
(1.00076 -0.0425108 6.90773e-06)
(1.01666 -0.125414 6.16584e-06)
(1.0504 -0.210555 -6.48921e-06)
(1.10083 -0.287555 -6.27165e-06)
(1.17258 -0.365417 -3.52717e-05)
(1.2635 -0.425214 -2.58422e-05)
(1.37051 -0.471846 -3.79954e-05)
(1.49331 -0.491795 8.17329e-06)
(1.61608 -0.481403 6.45422e-05)
(1.71852 -0.443198 8.39713e-05)
(1.78309 -0.387891 4.32282e-05)
(1.81272 -0.332567 -3.27734e-05)
(1.8183 -0.286874 -8.07577e-05)
(1.8115 -0.250198 -7.47931e-05)
(1.79821 -0.219227 -4.05268e-05)
(1.78037 -0.192135 -1.15903e-05)
(1.7591 -0.168147 -4.70621e-08)
(1.73573 -0.146645 2.60711e-06)
(1.71146 -0.127141 4.12759e-06)
(1.68714 -0.10936 5.42118e-06)
(1.66336 -0.0931417 5.86942e-06)
(1.64056 -0.0783526 5.7715e-06)
(1.6191 -0.0648489 5.46271e-06)
(1.59917 -0.0524959 5.20785e-06)
(1.58093 -0.0411526 4.8313e-06)
(1.56436 -0.0306905 4.48123e-06)
(1.54954 -0.0209804 3.93294e-06)
(1.53627 -0.0118896 3.53745e-06)
(1.52467 -0.00334073 2.81723e-06)
(1.51438 0.00478589 1.85344e-06)
(1.50555 0.0125146 9.77735e-07)
(1.49778 0.0199951 1.51256e-06)
(1.49139 0.0273622 1.7044e-06)
(1.48566 0.0345964 2.44959e-06)
(1.48119 0.0418317 2.01524e-06)
(1.47693 0.0490011 2.65345e-06)
(1.47394 0.0562761 1.74457e-06)
(1.47058 0.0634972 2.65963e-06)
(1.4686 0.0708886 1.22269e-06)
(1.46552 0.0781565 2.648e-06)
(1.46414 0.0856132 4.426e-07)
(1.46062 0.0927797 2.7186e-06)
(1.45947 0.100099 -6.33821e-07)
(1.45473 0.106853 3.02824e-06)
(1.45353 0.113644 -2.04789e-06)
(1.44669 0.1195 3.79927e-06)
(1.4454 0.125134 -3.67544e-06)
(1.43554 0.129434 4.92683e-06)
(1.43451 0.132949 -4.51447e-06)
(1.42077 0.134918 2.83519e-06)
(1.00046 -0.0492833 1.19305e-05)
(1.0191 -0.146606 1.03121e-05)
(1.05627 -0.247033 6.48625e-06)
(1.1142 -0.340582 -1.16144e-05)
(1.19995 -0.43891 -4.32712e-05)
(1.30701 -0.512406 -6.00151e-05)
(1.44189 -0.576454 -8.47549e-05)
(1.60083 -0.600248 -1.32871e-05)
(1.74883 -0.573512 4.97624e-05)
(1.84732 -0.506584 9.66027e-05)
(1.87681 -0.419945 0.000108271)
(1.85649 -0.340578 2.1385e-05)
(1.8059 -0.27875 -6.70739e-05)
(1.74702 -0.231757 -6.85393e-05)
(1.68804 -0.194278 -1.8004e-05)
(1.63082 -0.163675 1.60559e-05)
(1.57641 -0.138284 2.56261e-05)
(1.5262 -0.116709 2.56749e-05)
(1.48102 -0.0980292 2.43079e-05)
(1.44107 -0.0817306 2.1579e-05)
(1.40625 -0.0674544 1.79214e-05)
(1.37629 -0.0548885 1.44783e-05)
(1.35084 -0.043741 1.17448e-05)
(1.32947 -0.0337673 9.73448e-06)
(1.31177 -0.0247399 8.1253e-06)
(1.29727 -0.0164846 6.78889e-06)
(1.28565 -0.00881886 5.40782e-06)
(1.27647 -0.00164152 3.96419e-06)
(1.26947 0.00521022 2.76069e-06)
(1.2643 0.0117424 2.79443e-06)
(1.26093 0.0181516 3.01461e-06)
(1.25891 0.0244706 3.82372e-06)
(1.25837 0.0307996 3.88527e-06)
(1.25872 0.0371178 4.27654e-06)
(1.26033 0.0435625 3.78325e-06)
(1.2624 0.0500622 4.19483e-06)
(1.26564 0.0567914 3.43352e-06)
(1.26886 0.063581 4.06731e-06)
(1.27324 0.0706685 2.97411e-06)
(1.277 0.0777418 3.90983e-06)
(1.28202 0.0851426 2.37743e-06)
(1.28569 0.0923554 3.69802e-06)
(1.29084 0.0998725 1.63092e-06)
(1.29372 0.106917 3.41196e-06)
(1.29845 0.114151 7.64747e-07)
(1.29981 0.120541 3.08744e-06)
(1.30354 0.126798 -8.07699e-08)
(1.30277 0.131872 2.79435e-06)
(1.30491 0.135976 -5.55031e-07)
(1.30177 0.138972 1.75956e-06)
(0.999762 -0.0565133 1.89961e-05)
(1.02181 -0.170016 2.07122e-05)
(1.05902 -0.286966 3.27687e-05)
(1.12688 -0.403539 -1.14745e-05)
(1.22304 -0.525516 -2.49072e-05)
(1.34844 -0.622152 -0.000110228)
(1.52423 -0.715763 -0.000123051)
(1.72348 -0.737162 -3.70928e-05)
(1.86587 -0.664232 1.86241e-05)
(1.89283 -0.534129 4.26798e-05)
(1.81717 -0.397137 0.000152194)
(1.69365 -0.291634 0.000116153)
(1.54356 -0.214954 9.97678e-06)
(1.41241 -0.162233 -1.62992e-05)
(1.30467 -0.124517 1.81912e-05)
(1.21735 -0.0982911 2.68775e-05)
(1.14773 -0.0798882 1.77436e-05)
(1.09376 -0.0662794 1.18447e-05)
(1.05271 -0.0556054 1.05306e-05)
(1.02182 -0.0468123 9.54752e-06)
(0.9988 -0.0392254 8.22677e-06)
(0.981904 -0.0324138 7.03422e-06)
(0.969812 -0.0261122 6.03358e-06)
(0.961505 -0.0201716 5.13796e-06)
(0.956239 -0.0144865 4.23173e-06)
(0.953438 -0.00900542 3.3384e-06)
(0.952676 -0.0036567 2.3705e-06)
(0.953655 0.0015568 1.70128e-06)
(0.956099 0.00677181 1.03333e-06)
(0.959789 0.0120066 1.21904e-06)
(0.964699 0.0172612 1.58597e-06)
(0.970569 0.0225611 2.29571e-06)
(0.977477 0.0279856 2.33282e-06)
(0.985065 0.0335209 2.66771e-06)
(0.993582 0.0392816 2.42873e-06)
(1.00253 0.0452075 2.87677e-06)
(1.01235 0.0514459 2.49726e-06)
(1.0223 0.0578571 3.08551e-06)
(1.03308 0.064645 2.52258e-06)
(1.04365 0.0715459 3.20582e-06)
(1.05499 0.0788541 2.48536e-06)
(1.06572 0.0861244 3.10055e-06)
(1.07708 0.0937808 2.44044e-06)
(1.08748 0.101144 2.54667e-06)
(1.09813 0.10877 2.58018e-06)
(1.10776 0.115777 1.26283e-06)
(1.11662 0.122658 3.24783e-06)
(1.12526 0.128707 -7.10939e-07)
(1.13073 0.133478 4.20543e-06)
(1.13892 0.137978 -2.82295e-07)
(0.999093 -0.0639305 2.61565e-05)
(1.02307 -0.193589 4.1657e-05)
(1.05678 -0.329085 6.50632e-05)
(1.13376 -0.474182 1.25718e-05)
(1.22894 -0.623126 3.40379e-05)
(1.38456 -0.765047 -0.000178913)
(1.60579 -0.894481 -7.15838e-05)
(1.80688 -0.870247 -0.00013103)
(1.85779 -0.779123 5.14971e-05)
(1.74672 -0.53374 -0.000145862)
(1.49685 -0.305322 -0.000106478)
(1.21647 -0.163243 -5.54211e-05)
(0.797078 -0.0533933 -3.63269e-05)
(0.688228 -0.0378959 -3.0015e-05)
(0.629672 -0.0348921 2.70751e-05)
(0.598491 -0.0378411 3.52172e-05)
(0.584373 -0.0408031 2.57018e-05)
(0.580279 -0.0417483 1.81631e-05)
(0.581315 -0.0407103 1.17765e-05)
(0.584816 -0.0382595 6.16785e-06)
(0.589627 -0.0348813 2.44992e-06)
(0.595273 -0.0309302 4.44355e-07)
(0.601563 -0.0266511 -4.49304e-07)
(0.608418 -0.0222061 -7.25565e-07)
(0.615817 -0.0176868 -6.97399e-07)
(0.623759 -0.0131521 -4.77438e-07)
(0.632235 -0.00861691 -7.45028e-08)
(0.641311 -0.00409195 4.89267e-07)
(0.650951 0.000469274 1.52122e-07)
(0.661112 0.00504487 -6.66269e-07)
(0.671828 0.00974127 -7.95337e-07)
(0.683132 0.0145188 -3.16114e-07)
(0.695076 0.0194302 -1.94831e-07)
(0.707509 0.0244902 2.19181e-07)
(0.7206 0.0297952 2.43968e-07)
(0.734103 0.035317 7.14493e-07)
(0.748268 0.0411725 6.31814e-07)
(0.762721 0.0472782 1.1712e-06)
(0.777809 0.0537833 1.01211e-06)
(0.793023 0.0605155 1.54099e-06)
(0.808764 0.0676759 1.4342e-06)
(0.824488 0.0749652 1.64162e-06)
(0.840411 0.0826537 2.03398e-06)
(0.85637 0.0902846 1.05932e-06)
(0.87165 0.0981796 3.209e-06)