/*--------------------------------*- C++ -*----------------------------------*\
  =========                 |
  \\      /  F ield         | OpenFOAM: The Open Source CFD Toolbox
   \\    /   O peration     | Website:  https://openfoam.org
    \\  /    A nd           | Version:  8
     \\/     M anipulation  |
\*---------------------------------------------------------------------------*/
FoamFile
{
    version     2.0;
    format      ascii;
    class       volScalarField;
    location    "50";
    object      p;
}
// * * * * * * * * * * * * * * * * * * * * * * * * * * * * * * * * * * * * * //

dimensions      [0 2 -2 0 0 0 0];

internalField   nonuniform List<scalar> 
116
(
-1.44871e-07
-0.00108585
-0.00165186
-0.0034738
0.00114606
-0.00872137
3.83485e-05
-0.000763382
-0.000417973
-0.00413735
-0.00170274
-0.00304815
0.00098388
4.68125e-05
-0.000356034
-0.00302187
-0.0056157
-0.00810946
0.00164788
0.00110142
-0.000122581
-0.00332733
-0.00727238
-0.00886929
0.00179428
0.00122839
-0.000537305
-0.00435476
-0.00904556
-0.0107842
0.00110185
0.000816891
-0.00097423
-0.00439493
-0.00902836
-0.0108257
0.00126778
0.00083779
-0.000604434
-0.00389054
-0.00844615
-0.0111598
0.000284527
0.000997076
0.000444263
-0.00171941
-0.00504208
-0.00741277
0.00165482
0.000953491
0.00236546
0.000544236
-0.00243458
-0.00541565
-0.00365133
0.00431209
0.00447376
0.00308013
-0.000406669
-0.00273751
0.00208523
0.0110128
0.00943707
0.0150016
-0.00221022
0.00186756
0.00482017
0.0083916
-0.00879487
-0.00621362
-0.00255201
0.000814433
-0.00991616
-0.00876018
-0.00699539
-0.00382198
-0.0111987
-0.0102445
-0.00953471
-0.00653632
-0.011509
-0.0100163
-0.00998047
-0.00650625
-0.0117962
-0.00974028
-0.0106184
-0.00326856
-0.00742504
-0.00528446
-0.0042983
0.00651148
-0.00727963
-0.00495362
-0.0029407
0.0145267
-0.00277917
0.00438017
0.0183635
0.055491
0.0190473
0.0180511
0.0178211
0.0212069
0.0168308
0.0169191
0.0149147
0.0172477
0.0130602
0.0137686
0.0118596
0.0129352
0.00939693
0.0172137
0.010392
0.0149809
)
;

boundaryField
{
    movingWall
    {
        type            zeroGradient;
    }
    fixedWalls
    {
        type            zeroGradient;
    }
    frontAndBack
    {
        type            empty;
    }
}


// ************************************************************************* //
