0 	-2.92108e-07
1.57135 	-4.52092e-06
3.1427 	-2.94073e-05
4.71405 	-0.00010689
6.28539 	-0.000333044
7.85674 	-0.00108068
9.42809 	-0.00332969
10.9994 	-0.00466052
12.5708 	-0.00393571
14.1421 	0.250494
