/*--------------------------------*- C++ -*----------------------------------*\
  =========                 |
  \\      /  F ield         | OpenFOAM: The Open Source CFD Toolbox
   \\    /   O peration     | Website:  https://openfoam.org
    \\  /    A nd           | Version:  8
     \\/     M anipulation  |
\*---------------------------------------------------------------------------*/
FoamFile
{
    version     2.0;
    format      ascii;
    class       volVectorField;
    location    "37";
    object      U;
}
// * * * * * * * * * * * * * * * * * * * * * * * * * * * * * * * * * * * * * //

dimensions      [0 1 -1 0 0 0 0];

internalField   nonuniform List<vector> 
11600
(
(-3.38357e-06 3.25685e-06 0)
(-4.15855e-05 1.49828e-05 0)
(-0.00010893 1.95401e-05 0)
(-0.000178009 2.09314e-05 0)
(-0.000251155 2.10468e-05 0)
(-0.000324284 2.09059e-05 0)
(-0.000397349 2.08201e-05 0)
(-0.000470414 2.08071e-05 0)
(-0.000543526 2.08405e-05 0)
(-0.000616729 2.09006e-05 0)
(-0.000690052 2.09769e-05 0)
(-0.000763515 2.10644e-05 0)
(-0.000837134 2.11609e-05 0)
(-0.000910919 2.12652e-05 0)
(-0.000984882 2.13766e-05 0)
(-0.00105903 2.14945e-05 0)
(-0.00113337 2.16184e-05 0)
(-0.00120791 2.17479e-05 0)
(-0.00128265 2.18824e-05 0)
(-0.0013576 2.20215e-05 0)
(-0.00143276 2.21645e-05 0)
(-0.00150812 2.2311e-05 0)
(-0.00158369 2.24603e-05 0)
(-0.00165946 2.26117e-05 0)
(-0.00173543 2.27646e-05 0)
(-0.00181159 2.29183e-05 0)
(-0.00188793 2.3072e-05 0)
(-0.00196444 2.3225e-05 0)
(-0.00204111 2.33766e-05 0)
(-0.00211793 2.3526e-05 0)
(-0.00219488 2.36725e-05 0)
(-0.00227193 2.38152e-05 0)
(-0.00234908 2.39535e-05 0)
(-0.00242631 2.40869e-05 0)
(-0.00250359 2.42146e-05 0)
(-0.00258091 2.43364e-05 0)
(-0.00265824 2.4452e-05 0)
(-0.00273556 2.45614e-05 0)
(-0.00281288 2.46648e-05 0)
(-0.00289017 2.47631e-05 0)
(-0.00296743 2.48573e-05 0)
(-0.00304467 2.49492e-05 0)
(-0.00312192 2.50413e-05 0)
(-0.0031992 2.5137e-05 0)
(-0.0032766 2.52402e-05 0)
(-0.0033542 2.53558e-05 0)
(-0.00343214 2.5488e-05 0)
(-0.00351062 2.56387e-05 0)
(-0.00358992 2.5801e-05 0)
(-0.00367038 2.59458e-05 0)
(-0.00375247 2.5991e-05 0)
(-0.00383674 2.5737e-05 0)
(-0.00392375 2.47445e-05 0)
(-0.00401432 2.21197e-05 0)
(-0.00411109 1.65612e-05 0)
(-0.00421706 9.28299e-06 0)
(-0.00430554 1.35155e-05 0)
(-0.00463097 5.23143e-05 0)
(-0.00466385 0.000515645 0)
(-0.00667988 0.00181842 0)
(-1.5496e-05 4.17223e-05 0)
(-9.58966e-05 9.4756e-05 0)
(-0.000223324 0.000116912 0)
(-0.000355013 0.000125049 0)
(-0.000494056 0.000127264 0)
(-0.000633978 0.00012767 0)
(-0.000774178 0.000127729 0)
(-0.000914524 0.000127791 0)
(-0.00105494 0.000127907 0)
(-0.00119542 0.000128067 0)
(-0.00133596 0.000128257 0)
(-0.00147657 0.000128471 0)
(-0.00161725 0.000128702 0)
(-0.00175801 0.000128947 0)
(-0.00189884 0.000129204 0)
(-0.00203974 0.000129471 0)
(-0.0021807 0.000129744 0)
(-0.00232172 0.000130023 0)
(-0.00246278 0.000130304 0)
(-0.00260387 0.000130585 0)
(-0.00274498 0.000130863 0)
(-0.00288609 0.000131137 0)
(-0.00302718 0.000131402 0)
(-0.00316823 0.000131657 0)
(-0.00330921 0.000131899 0)
(-0.00345011 0.000132123 0)
(-0.00359088 0.000132329 0)
(-0.0037315 0.000132511 0)
(-0.00387193 0.000132669 0)
(-0.00401213 0.000132798 0)
(-0.00415207 0.000132897 0)
(-0.00429171 0.000132963 0)
(-0.004431 0.000132995 0)
(-0.00456991 0.000132992 0)
(-0.0047084 0.000132954 0)
(-0.00484642 0.000132882 0)
(-0.00498395 0.00013278 0)
(-0.00512095 0.000132653 0)
(-0.00525742 0.000132508 0)
(-0.00539333 0.000132357 0)
(-0.00552872 0.000132215 0)
(-0.00566361 0.000132106 0)
(-0.00579807 0.000132059 0)
(-0.00593223 0.000132114 0)
(-0.00606624 0.000132326 0)
(-0.00620038 0.000132768 0)
(-0.00633499 0.000133538 0)
(-0.00647059 0.000134767 0)
(-0.0066079 0.000136632 0)
(-0.00674796 0.00013937 0)
(-0.00689224 0.000143303 0)
(-0.00704292 0.000148872 0)
(-0.00720335 0.00015674 0)
(-0.00737925 0.000168144 0)
(-0.00758034 0.000186568 0)
(-0.00781892 0.000224194 0)
(-0.00812031 0.000313875 0)
(-0.00861998 0.000510076 0)
(-0.00903963 0.00121721 0)
(-0.0102216 0.00223593 0)
(-2.04959e-05 0.000110475 0)
(-0.000119718 0.000222867 0)
(-0.000274172 0.000270632 0)
(-0.000433138 0.000288744 0)
(-0.000600434 0.000294424 0)
(-0.000768747 0.000295921 0)
(-0.000937365 0.000296296 0)
(-0.00110611 0.000296451 0)
(-0.00127488 0.000296601 0)
(-0.00144364 0.000296781 0)
(-0.00161237 0.000296987 0)
(-0.00178106 0.00029721 0)
(-0.00194972 0.000297444 0)
(-0.00211831 0.000297685 0)
(-0.00228684 0.000297927 0)
(-0.00245527 0.000298165 0)
(-0.0026236 0.000298395 0)
(-0.00279181 0.000298613 0)
(-0.00295987 0.000298814 0)
(-0.00312775 0.000298992 0)
(-0.00329543 0.000299144 0)
(-0.00346289 0.000299263 0)
(-0.00363008 0.000299343 0)
(-0.00379698 0.00029938 0)
(-0.00396355 0.000299368 0)
(-0.00412974 0.0002993 0)
(-0.00429551 0.000299172 0)
(-0.00446083 0.000298977 0)
(-0.00462564 0.000298711 0)
(-0.00478989 0.000298369 0)
(-0.00495353 0.000297946 0)
(-0.00511651 0.000297441 0)
(-0.00527879 0.00029685 0)
(-0.0054403 0.000296176 0)
(-0.005601 0.00029542 0)
(-0.00576084 0.000294588 0)
(-0.00591978 0.00029369 0)
(-0.00607779 0.000292741 0)
(-0.00623485 0.000291765 0)
(-0.00639096 0.00029079 0)
(-0.00654613 0.000289861 0)
(-0.00670041 0.000289036 0)
(-0.00685389 0.00028839 0)
(-0.0070067 0.00028803 0)
(-0.00715906 0.000288096 0)
(-0.00731127 0.000288777 0)
(-0.00746375 0.00029033 0)
(-0.0076171 0.000293111 0)
(-0.00777215 0.000297612 0)
(-0.00793006 0.000304539 0)
(-0.00809244 0.000314932 0)
(-0.0082616 0.000330393 0)
(-0.00844093 0.000353549 0)
(-0.00863566 0.000389166 0)
(-0.00885336 0.00044702 0)
(-0.00910327 0.000547895 0)
(-0.00940256 0.000731264 0)
(-0.00978742 0.0010758 0)
(-0.0100699 0.00179608 0)
(-0.0105614 0.00276561 0)
(-2.21684e-05 0.000181898 0)
(-0.00012899 0.000356545 0)
(-0.000294483 0.000430284 0)
(-0.000463997 0.000457923 0)
(-0.000642099 0.000466707 0)
(-0.00082114 0.000469102 0)
(-0.00100046 0.000469697 0)
(-0.00117991 0.000469884 0)
(-0.00135935 0.000470009 0)
(-0.00153875 0.000470139 0)
(-0.00171807 0.000470277 0)
(-0.00189731 0.000470418 0)
(-0.00207643 0.000470553 0)
(-0.00225543 0.000470675 0)
(-0.00243427 0.00047078 0)
(-0.00261294 0.000470859 0)
(-0.00279142 0.000470907 0)
(-0.00296967 0.000470918 0)
(-0.00314766 0.000470883 0)
(-0.00332537 0.000470797 0)
(-0.00350277 0.000470651 0)
(-0.00367981 0.000470438 0)
(-0.00385646 0.00047015 0)
(-0.00403268 0.000469779 0)
(-0.00420842 0.000469316 0)
(-0.00438364 0.000468754 0)
(-0.00455829 0.000468084 0)
(-0.00473233 0.000467298 0)
(-0.00490569 0.00046639 0)
(-0.00507832 0.000465353 0)
(-0.00525016 0.000464182 0)
(-0.00542117 0.000462873 0)
(-0.00559128 0.000461425 0)
(-0.00576043 0.00045984 0)
(-0.00592856 0.000458124 0)
(-0.00609564 0.000456287 0)
(-0.0062616 0.000454346 0)
(-0.00642642 0.000452326 0)
(-0.00659006 0.000450264 0)
(-0.00675251 0.00044821 0)
(-0.00691378 0.000446231 0)
(-0.00707392 0.00044442 0)
(-0.00723299 0.000442901 0)
(-0.00739112 0.000441836 0)
(-0.00754849 0.000441446 0)
(-0.00770539 0.000442026 0)
(-0.0078622 0.000443975 0)
(-0.00801946 0.000447837 0)
(-0.00817791 0.000454364 0)
(-0.00833859 0.000464616 0)
(-0.00850289 0.00048012 0)
(-0.00867277 0.000503149 0)
(-0.00885087 0.000537223 0)
(-0.00904077 0.00058814 0)
(-0.00924647 0.000666132 0)
(-0.00947123 0.000789332 0)
(-0.00971673 0.000987929 0)
(-0.00996735 0.00131516 0)
(-0.0101178 0.00186307 0)
(-0.0102042 0.00252304 0)
(-2.2386e-05 0.000257827 0)
(-0.000131713 0.000498216 0)
(-0.000301241 0.000598936 0)
(-0.000474422 0.00063635 0)
(-0.000656281 0.000648312 0)
(-0.000838968 0.000651636 0)
(-0.00102189 0.000652472 0)
(-0.00120492 0.000652694 0)
(-0.00138794 0.000652785 0)
(-0.00157089 0.000652845 0)
(-0.00175375 0.000652888 0)
(-0.0019365 0.000652911 0)
(-0.00211913 0.000652906 0)
(-0.00230159 0.000652866 0)
(-0.00248388 0.000652783 0)
(-0.00266596 0.00065265 0)
(-0.00284781 0.000652458 0)
(-0.0030294 0.000652198 0)
(-0.00321069 0.000651862 0)
(-0.00339167 0.00065144 0)
(-0.00357228 0.000650923 0)
(-0.00375249 0.0006503 0)
(-0.00393227 0.00064956 0)
(-0.00411156 0.000648693 0)
(-0.00429033 0.000647689 0)
(-0.00446852 0.000646536 0)
(-0.00464609 0.000645223 0)
(-0.00482298 0.000643742 0)
(-0.00499913 0.000642082 0)
(-0.0051745 0.000640235 0)
(-0.00534901 0.000638194 0)
(-0.0055226 0.000635957 0)
(-0.00569523 0.00063352 0)
(-0.00586681 0.000630888 0)
(-0.0060373 0.000628067 0)
(-0.00620663 0.000625073 0)
(-0.00637475 0.000621928 0)
(-0.00654161 0.000618667 0)
(-0.00670717 0.000615338 0)
(-0.00687141 0.000612009 0)
(-0.0070343 0.000608771 0)
(-0.00719587 0.000605745 0)
(-0.00735615 0.000603094 0)
(-0.00751522 0.000601034 0)
(-0.00767321 0.000599853 0)
(-0.0078303 0.000599935 0)
(-0.00798676 0.000601796 0)
(-0.00814296 0.000606134 0)
(-0.00829938 0.000613906 0)
(-0.00845668 0.000626443 0)
(-0.00861566 0.000645625 0)
(-0.00877731 0.000674166 0)
(-0.00894277 0.000716074 0)
(-0.00911302 0.00077744 0)
(-0.00928816 0.000867708 0)
(-0.00946585 0.00100119 0)
(-0.00963839 0.00119862 0)
(-0.00978013 0.00148948 0)
(-0.00983074 0.0018994 0)
(-0.00976586 0.00237222 0)
(-2.22298e-05 0.000333879 0)
(-0.000132196 0.000641078 0)
(-0.000303039 0.000768999 0)
(-0.000477371 0.000816141 0)
(-0.000660439 0.000831179 0)
(-0.000844257 0.000835358 0)
(-0.00102828 0.000836393 0)
(-0.0012124 0.000836631 0)
(-0.00139649 0.000836676 0)
(-0.00158051 0.000836659 0)
(-0.00176444 0.0008366 0)
(-0.00194826 0.000836498 0)
(-0.00213195 0.000836345 0)
(-0.00231548 0.000836133 0)
(-0.00249882 0.000835852 0)
(-0.00268196 0.000835495 0)
(-0.00286485 0.00083505 0)
(-0.00304749 0.000834508 0)
(-0.00322982 0.000833856 0)
(-0.00341182 0.000833084 0)
(-0.00359346 0.00083218 0)
(-0.00377469 0.00083113 0)
(-0.00395548 0.000829922 0)
(-0.00413578 0.000828542 0)
(-0.00431554 0.000826977 0)
(-0.00449472 0.000825214 0)
(-0.00467326 0.000823238 0)
(-0.00485111 0.000821038 0)
(-0.00502821 0.000818602 0)
(-0.00520451 0.000815918 0)
(-0.00537994 0.00081298 0)
(-0.00555443 0.000809781 0)
(-0.00572792 0.000806318 0)
(-0.00590035 0.000802595 0)
(-0.00607163 0.000798621 0)
(-0.00624172 0.000794412 0)
(-0.00641054 0.000789995 0)
(-0.00657803 0.00078541 0)
(-0.00674413 0.000780716 0)
(-0.0069088 0.000775989 0)
(-0.00707198 0.000771337 0)
(-0.00723367 0.000766903 0)
(-0.00739385 0.000762875 0)
(-0.00755252 0.000759505 0)
(-0.00770974 0.000757121 0)
(-0.00786557 0.00075616 0)
(-0.00802013 0.000757202 0)
(-0.00817356 0.000761016 0)
(-0.00832604 0.000768637 0)
(-0.00847779 0.000781461 0)
(-0.008629 0.000801394 0)
(-0.00877974 0.000831056 0)
(-0.00892981 0.000874077 0)
(-0.00907829 0.000935532 0)
(-0.00922272 0.00102246 0)
(-0.00935779 0.00114422 0)
(-0.00947251 0.00131254 0)
(-0.00954405 0.00154005 0)
(-0.00953646 0.00182864 0)
(-0.00941871 0.00214735 0)
(-2.20675e-05 0.000409804 0)
(-0.000132105 0.000784257 0)
(-0.000303312 0.00093949 0)
(-0.000477979 0.000996375 0)
(-0.000661432 0.00101446 0)
(-0.0008456 0.00101946 0)
(-0.00102996 0.00102068 0)
(-0.0012144 0.00102092 0)
(-0.00139881 0.00102092 0)
(-0.00158315 0.00102083 0)
(-0.00176741 0.00102067 0)
(-0.00195156 0.00102044 0)
(-0.00213558 0.00102015 0)
(-0.00231945 0.00101976 0)
(-0.00250314 0.00101929 0)
(-0.00268663 0.00101871 0)
(-0.00286988 0.00101802 0)
(-0.00305288 0.0010172 0)
(-0.00323559 0.00101623 0)
(-0.00341798 0.00101512 0)
(-0.00360001 0.00101383 0)
(-0.00378164 0.00101236 0)
(-0.00396283 0.00101068 0)
(-0.00414355 0.0010088 0)
(-0.00432374 0.00100667 0)
(-0.00450335 0.0010043 0)
(-0.00468234 0.00100167 0)
(-0.00486064 0.000998749 0)
(-0.0050382 0.000995536 0)
(-0.00521496 0.000992014 0)
(-0.00539084 0.000988172 0)
(-0.00556579 0.000984001 0)
(-0.00573974 0.000979499 0)
(-0.0059126 0.000974666 0)
(-0.00608431 0.000969509 0)
(-0.00625479 0.000964047 0)
(-0.00642395 0.000958306 0)
(-0.00659173 0.000952329 0)
(-0.00675804 0.000946177 0)
(-0.00692281 0.000939935 0)
(-0.00708597 0.000933715 0)
(-0.00724745 0.000927672 0)
(-0.00740718 0.000922006 0)
(-0.00756511 0.000916982 0)
(-0.00772117 0.000912946 0)
(-0.00787533 0.000910349 0)
(-0.00802752 0.000909784 0)
(-0.00817768 0.000912021 0)
(-0.00832569 0.000918072 0)
(-0.00847135 0.000929263 0)
(-0.00861433 0.000947339 0)
(-0.00875396 0.000974582 0)
(-0.0088891 0.00101397 0)
(-0.00901764 0.00106935 0)
(-0.00913592 0.00114548 0)
(-0.00923769 0.00124788 0)
(-0.0093125 0.00138211 0)
(-0.00934328 0.00155145 0)
(-0.00930759 0.00175015 0)
(-0.00918397 0.00195779 0)
(-2.19467e-05 0.000485577 0)
(-0.000131907 0.000927516 0)
(-0.000303185 0.00111015 0)
(-0.000477955 0.00117683 0)
(-0.000661557 0.00119796 0)
(-0.000845862 0.00120378 0)
(-0.00103035 0.00120517 0)
(-0.00121492 0.00120542 0)
(-0.00139946 0.00120537 0)
(-0.00158393 0.0012052 0)
(-0.00176833 0.00120495 0)
(-0.00195263 0.00120461 0)
(-0.0021368 0.00120417 0)
(-0.00232083 0.00120363 0)
(-0.00250469 0.00120297 0)
(-0.00268836 0.00120218 0)
(-0.00287182 0.00120125 0)
(-0.00305502 0.00120016 0)
(-0.00323795 0.0011989 0)
(-0.00342058 0.00119744 0)
(-0.00360285 0.00119579 0)
(-0.00378475 0.0011939 0)
(-0.00396623 0.00119178 0)
(-0.00414724 0.0011894 0)
(-0.00432775 0.00118673 0)
(-0.00450769 0.00118377 0)
(-0.00468702 0.00118048 0)
(-0.00486568 0.00117686 0)
(-0.00504362 0.00117288 0)
(-0.00522076 0.00116852 0)
(-0.00539704 0.00116378 0)
(-0.0055724 0.00115864 0)
(-0.00574674 0.00115309 0)
(-0.00592 0.00114714 0)
(-0.00609209 0.00114078 0)
(-0.00626293 0.00113403 0)
(-0.00643242 0.00112691 0)
(-0.00660047 0.00111948 0)
(-0.00676697 0.00111178 0)
(-0.00693184 0.0011039 0)
(-0.00709495 0.00109596 0)
(-0.0072562 0.00108809 0)
(-0.00741547 0.00108051 0)
(-0.00757263 0.00107348 0)
(-0.00772753 0.00106732 0)
(-0.00788 0.00106248 0)
(-0.00802984 0.00105952 0)
(-0.00817678 0.00105914 0)
(-0.00832046 0.00106226 0)
(-0.00846035 0.00107005 0)
(-0.00859572 0.00108395 0)
(-0.00872543 0.0011058 0)
(-0.00884777 0.0011378 0)
(-0.00896011 0.00118258 0)
(-0.00905848 0.00124302 0)
(-0.00913693 0.00132186 0)
(-0.00918682 0.00142088 0)
(-0.00919616 0.0015391 0)
(-0.00915108 0.00166927 0)
(-0.0090389 0.00179611 0)
(-2.18513e-05 0.000561194 0)
(-0.000131702 0.00107073 0)
(-0.00030297 0.00128085 0)
(-0.000477788 0.00135737 0)
(-0.000661478 0.00138156 0)
(-0.000845871 0.0013882 0)
(-0.00103045 0.00138976 0)
(-0.00121511 0.00139001 0)
(-0.00139974 0.00138992 0)
(-0.00158432 0.00138968 0)
(-0.00176882 0.00138935 0)
(-0.00195324 0.0013889 0)
(-0.00213754 0.00138833 0)
(-0.0023217 0.00138764 0)
(-0.00250571 0.00138681 0)
(-0.00268955 0.00138582 0)
(-0.00287318 0.00138466 0)
(-0.00305658 0.00138332 0)
(-0.00323972 0.00138177 0)
(-0.00342256 0.00138 0)
(-0.00360509 0.00137799 0)
(-0.00378725 0.00137572 0)
(-0.00396901 0.00137316 0)
(-0.00415033 0.0013703 0)
(-0.00433116 0.00136711 0)
(-0.00451145 0.00136357 0)
(-0.00469114 0.00135966 0)
(-0.00487019 0.00135534 0)
(-0.00504853 0.00135061 0)
(-0.0052261 0.00134544 0)
(-0.00540282 0.00133981 0)
(-0.00557862 0.0013337 0)
(-0.00575342 0.00132711 0)
(-0.00592713 0.00132002 0)
(-0.00609967 0.00131244 0)
(-0.00627093 0.00130438 0)
(-0.00644082 0.00129585 0)
(-0.00660921 0.0012869 0)
(-0.006776 0.00127756 0)
(-0.00694104 0.00126793 0)
(-0.00710421 0.0012581 0)
(-0.00726534 0.00124822 0)
(-0.00742427 0.00123846 0)
(-0.00758079 0.00122906 0)
(-0.00773469 0.00122035 0)
(-0.00788568 0.00121269 0)
(-0.00803343 0.00120659 0)
(-0.00817753 0.00120267 0)
(-0.00831741 0.00120169 0)
(-0.00845233 0.00120459 0)
(-0.00858129 0.00121251 0)
(-0.00870289 0.00122677 0)
(-0.00881519 0.00124888 0)
(-0.00891545 0.00128044 0)
(-0.0089999 0.00132292 0)
(-0.00906345 0.00137725 0)
(-0.00909938 0.00144315 0)
(-0.00909949 0.00151793 0)
(-0.00905528 0.00159486 0)
(-0.00895988 0.00166246 0)
(-2.17652e-05 0.000636663 0)
(-0.000131497 0.00121388 0)
(-0.000302736 0.00145156 0)
(-0.000477594 0.00153797 0)
(-0.00066136 0.00156525 0)
(-0.000845839 0.0015727 0)
(-0.00103051 0.00157443 0)
(-0.00121526 0.0015747 0)
(-0.00139999 0.00157456 0)
(-0.00158468 0.00157427 0)
(-0.00176929 0.00157385 0)
(-0.00195383 0.00157331 0)
(-0.00213826 0.00157263 0)
(-0.00232258 0.0015718 0)
(-0.00250675 0.00157081 0)
(-0.00269076 0.00156963 0)
(-0.00287459 0.00156827 0)
(-0.0030582 0.00156669 0)
(-0.00324157 0.00156488 0)
(-0.00342467 0.00156281 0)
(-0.00360746 0.00156047 0)
(-0.00378992 0.00155782 0)
(-0.003972 0.00155486 0)
(-0.00415366 0.00155154 0)
(-0.00433485 0.00154785 0)
(-0.00451553 0.00154375 0)
(-0.00469565 0.00153923 0)
(-0.00487514 0.00153425 0)
(-0.00505394 0.00152879 0)
(-0.00523199 0.00152281 0)
(-0.00540922 0.00151631 0)
(-0.00558554 0.00150925 0)
(-0.00576088 0.00150162 0)
(-0.00593513 0.0014934 0)
(-0.00610821 0.00148459 0)
(-0.00628 0.00147519 0)
(-0.00645039 0.00146521 0)
(-0.00661924 0.00145468 0)
(-0.00678643 0.00144364 0)
(-0.0069518 0.00143214 0)
(-0.00711517 0.00142029 0)
(-0.00727636 0.00140819 0)
(-0.00743514 0.001396 0)
(-0.00759126 0.00138394 0)
(-0.00774442 0.00137226 0)
(-0.00789428 0.00136129 0)
(-0.00804039 0.00135143 0)
(-0.00818222 0.00134319 0)
(-0.00831907 0.00133716 0)
(-0.00845008 0.00133406 0)
(-0.0085741 0.00133468 0)
(-0.00868962 0.00133992 0)
(-0.00879468 0.00135068 0)
(-0.0088867 0.00136776 0)
(-0.00896235 0.00139168 0)
(-0.00901746 0.00142229 0)
(-0.009047 0.00145829 0)
(-0.00904541 0.00149656 0)
(-0.00900751 0.00153136 0)
(-0.00892977 0.0015542 0)
(-2.16788e-05 0.000711988 0)
(-0.000131284 0.00135694 0)
(-0.000302491 0.00162227 0)
(-0.000477393 0.00171863 0)
(-0.000661238 0.00174901 0)
(-0.000845808 0.00175729 0)
(-0.00103057 0.00175921 0)
(-0.00121543 0.00175948 0)
(-0.00140028 0.00175932 0)
(-0.00158508 0.00175897 0)
(-0.00176982 0.00175848 0)
(-0.0019545 0.00175785 0)
(-0.00213909 0.00175707 0)
(-0.00232357 0.00175612 0)
(-0.00250792 0.00175498 0)
(-0.00269213 0.00175364 0)
(-0.00287618 0.00175209 0)
(-0.00306002 0.00175029 0)
(-0.00324365 0.00174823 0)
(-0.00342704 0.00174589 0)
(-0.00361014 0.00174324 0)
(-0.00379293 0.00174025 0)
(-0.00397536 0.0017369 0)
(-0.00415741 0.00173315 0)
(-0.00433901 0.00172898 0)
(-0.00452014 0.00172436 0)
(-0.00470072 0.00171926 0)
(-0.00488072 0.00171364 0)
(-0.00506005 0.00170747 0)
(-0.00523866 0.00170072 0)
(-0.00541647 0.00169336 0)
(-0.0055934 0.00168537 0)
(-0.00576936 0.00167671 0)
(-0.00594425 0.00166737 0)
(-0.00611797 0.00165732 0)
(-0.0062904 0.00164658 0)
(-0.00646142 0.00163512 0)
(-0.00663088 0.00162297 0)
(-0.00679863 0.00161015 0)
(-0.00696449 0.0015967 0)
(-0.00712826 0.00158269 0)
(-0.00728972 0.00156822 0)
(-0.00744861 0.00155341 0)
(-0.00760464 0.00153841 0)
(-0.00775744 0.00152343 0)
(-0.00790661 0.00150873 0)
(-0.00805163 0.00149462 0)
(-0.00819189 0.00148146 0)
(-0.00832664 0.00146969 0)
(-0.00845492 0.00145978 0)
(-0.00857554 0.00145226 0)
(-0.008687 0.00144764 0)
(-0.00878745 0.00144634 0)
(-0.00887456 0.00144861 0)
(-0.00894551 0.00145434 0)
(-0.00899698 0.00146277 0)
(-0.00902527 0.00147223 0)
(-0.00902661 0.00147968 0)
(-0.00899782 0.00148043 0)
(-0.00893713 0.00146826 0)
(-2.15874e-05 0.000787161 0)
(-0.000131058 0.00149992 0)
(-0.000302232 0.00179299 0)
(-0.000477183 0.00189936 0)
(-0.000661114 0.00193286 0)
(-0.000845782 0.00194198 0)
(-0.00103066 0.00194409 0)
(-0.00121563 0.00194438 0)
(-0.0014006 0.00194419 0)
(-0.00158553 0.0019438 0)
(-0.00177042 0.00194326 0)
(-0.00195525 0.00194255 0)
(-0.00214001 0.00194168 0)
(-0.00232467 0.00194062 0)
(-0.00250923 0.00193936 0)
(-0.00269367 0.00193787 0)
(-0.00287795 0.00193615 0)
(-0.00306206 0.00193416 0)
(-0.00324598 0.00193188 0)
(-0.00342968 0.00192928 0)
(-0.00361312 0.00192635 0)
(-0.00379627 0.00192304 0)
(-0.00397911 0.00191933 0)
(-0.00416158 0.00191519 0)
(-0.00434365 0.00191057 0)
(-0.00452527 0.00190546 0)
(-0.00470639 0.0018998 0)
(-0.00488694 0.00189357 0)
(-0.00506688 0.00188673 0)
(-0.00524612 0.00187923 0)
(-0.00542459 0.00187105 0)
(-0.00560221 0.00186214 0)
(-0.00577889 0.00185248 0)
(-0.00595453 0.00184203 0)
(-0.00612901 0.00183076 0)
(-0.00630222 0.00181866 0)
(-0.00647401 0.00180571 0)
(-0.00664423 0.00179191 0)
(-0.00681272 0.00177727 0)
(-0.00697927 0.0017618 0)
(-0.00714367 0.00174556 0)
(-0.00730566 0.00172858 0)
(-0.00746497 0.00171097 0)
(-0.00762125 0.00169283 0)
(-0.00777412 0.0016743 0)
(-0.00792311 0.00165557 0)
(-0.00806768 0.00163683 0)
(-0.00820716 0.00161833 0)
(-0.00834077 0.00160034 0)
(-0.00846753 0.00158315 0)
(-0.00858627 0.00156701 0)
(-0.00869557 0.00155214 0)
(-0.00879373 0.00153862 0)
(-0.00887872 0.00152632 0)
(-0.00894821 0.00151473 0)
(-0.00899959 0.00150281 0)
(-0.00903013 0.0014888 0)
(-0.00903725 0.00146999 0)
(-0.00901895 0.00144263 0)
(-0.00897436 0.00140214 0)
(-2.14886e-05 0.000862172 0)
(-0.000130813 0.00164281 0)
(-0.000301952 0.00196373 0)
(-0.000476958 0.00208015 0)
(-0.000660982 0.0021168 0)
(-0.000845759 0.00212678 0)
(-0.00103075 0.00212908 0)
(-0.00121585 0.00212941 0)
(-0.00140095 0.0021292 0)
(-0.00158603 0.00212878 0)
(-0.00177108 0.00212819 0)
(-0.00195608 0.00212743 0)
(-0.00214102 0.00212648 0)
(-0.00232589 0.00212533 0)
(-0.00251067 0.00212396 0)
(-0.00269535 0.00212235 0)
(-0.0028799 0.00212047 0)
(-0.0030643 0.00211831 0)
(-0.00324853 0.00211583 0)
(-0.00343257 0.00211302 0)
(-0.00361638 0.00210983 0)
(-0.00379994 0.00210623 0)
(-0.00398322 0.0021022 0)
(-0.00416616 0.00209769 0)
(-0.00434874 0.00209267 0)
(-0.00453091 0.00208709 0)
(-0.00471261 0.00208093 0)
(-0.00489379 0.00207412 0)
(-0.00507439 0.00206664 0)
(-0.00525434 0.00205843 0)
(-0.00543356 0.00204946 0)
(-0.00561197 0.00203968 0)
(-0.00578947 0.00202904 0)
(-0.00596597 0.0020175 0)
(-0.00614134 0.00200503 0)
(-0.00631546 0.00199159 0)
(-0.00648817 0.00197715 0)
(-0.00665933 0.0019617 0)
(-0.00682874 0.00194521 0)
(-0.00699621 0.00192768 0)
(-0.00716149 0.00190913 0)
(-0.00732431 0.00188957 0)
(-0.00748437 0.00186905 0)
(-0.00764131 0.00184763 0)
(-0.00779471 0.00182537 0)
(-0.00794409 0.00180239 0)
(-0.00808887 0.00177879 0)
(-0.00822838 0.00175469 0)
(-0.00836182 0.00173022 0)
(-0.00848825 0.00170549 0)
(-0.00860655 0.00168056 0)
(-0.0087154 0.00165541 0)
(-0.00881328 0.00162987 0)
(-0.00889846 0.00160355 0)
(-0.00896902 0.00157575 0)
(-0.00902291 0.0015453 0)
(-0.00905811 0.00151053 0)
(-0.00907279 0.00146909 0)
(-0.00906567 0.00141802 0)
(-0.0090363 0.00135387 0)
(-2.13814e-05 0.000937007 0)
(-0.000130548 0.0017856 0)
(-0.000301649 0.00213447 0)
(-0.000476714 0.00226102 0)
(-0.000660838 0.00230085 0)
(-0.000845729 0.00231169 0)
(-0.00103085 0.0023142 0)
(-0.00121608 0.00231456 0)
(-0.00140132 0.00231436 0)
(-0.00158656 0.00231391 0)
(-0.00177178 0.00231329 0)
(-0.00195696 0.00231248 0)
(-0.00214211 0.00231148 0)
(-0.0023272 0.00231026 0)
(-0.00251222 0.0023088 0)
(-0.00269715 0.00230708 0)
(-0.00288199 0.00230509 0)
(-0.0030667 0.00230278 0)
(-0.00325128 0.00230014 0)
(-0.00343569 0.00229712 0)
(-0.0036199 0.00229371 0)
(-0.0038039 0.00228986 0)
(-0.00398765 0.00228554 0)
(-0.00417111 0.0022807 0)
(-0.00435425 0.00227531 0)
(-0.00453701 0.00226932 0)
(-0.00471936 0.00226268 0)
(-0.00490123 0.00225535 0)
(-0.00508256 0.00224728 0)
(-0.0052633 0.0022384 0)
(-0.00544335 0.00222868 0)
(-0.00562264 0.00221806 0)
(-0.00580107 0.00220649 0)
(-0.00597854 0.0021939 0)
(-0.00615492 0.00218026 0)
(-0.0063301 0.00216551 0)
(-0.0065039 0.00214961 0)
(-0.00667618 0.00213251 0)
(-0.00684673 0.00211418 0)
(-0.00701535 0.00209458 0)
(-0.00718178 0.0020737 0)
(-0.00734574 0.00205152 0)
(-0.00750691 0.00202803 0)
(-0.00766493 0.00200324 0)
(-0.00781936 0.00197717 0)
(-0.0079697 0.00194983 0)
(-0.00811538 0.00192124 0)
(-0.00825573 0.00189143 0)
(-0.00838996 0.00186039 0)
(-0.00851719 0.00182808 0)
(-0.00863635 0.0017944 0)
(-0.00874626 0.00175917 0)
(-0.00884559 0.00172203 0)
(-0.00893285 0.00168245 0)
(-0.00900646 0.00163962 0)
(-0.00906481 0.00159236 0)
(-0.00910634 0.00153914 0)
(-0.00912976 0.00147797 0)
(-0.00913417 0.00140646 0)
(-0.00911932 0.00132201 0)
(-2.12651e-05 0.00101165 0)
(-0.000130259 0.00192828 0)
(-0.000301318 0.00230523 0)
(-0.000476445 0.00244197 0)
(-0.000660674 0.00248501 0)
(-0.000845688 0.00249673 0)
(-0.00103094 0.00249945 0)
(-0.00121631 0.00249987 0)
(-0.00140171 0.00249967 0)
(-0.00158711 0.00249922 0)
(-0.00177251 0.00249857 0)
(-0.00195789 0.00249774 0)
(-0.00214325 0.0024967 0)
(-0.00232857 0.00249542 0)
(-0.00251385 0.0024939 0)
(-0.00269906 0.0024921 0)
(-0.0028842 0.00249001 0)
(-0.00306925 0.00248759 0)
(-0.00325419 0.0024848 0)
(-0.00343899 0.00248163 0)
(-0.00362365 0.00247803 0)
(-0.00380812 0.00247397 0)
(-0.00399238 0.0024694 0)
(-0.00417639 0.00246428 0)
(-0.00436013 0.00245856 0)
(-0.00454354 0.0024522 0)
(-0.00472658 0.00244514 0)
(-0.0049092 0.00243732 0)
(-0.00509134 0.00242871 0)
(-0.00527293 0.00241922 0)
(-0.0054539 0.00240881 0)
(-0.00563417 0.0023974 0)
(-0.00581363 0.00238494 0)
(-0.00599219 0.00237136 0)
(-0.00616973 0.0023566 0)
(-0.00634611 0.00234059 0)
(-0.00652118 0.00232326 0)
(-0.00669476 0.00230455 0)
(-0.00686667 0.00228441 0)
(-0.00703669 0.00226277 0)
(-0.00720455 0.00223957 0)
(-0.00736998 0.00221477 0)
(-0.00753264 0.00218831 0)
(-0.00769217 0.00216014 0)
(-0.00784812 0.00213023 0)
(-0.00800001 0.00209851 0)
(-0.00814727 0.00206494 0)
(-0.00828924 0.00202941 0)
(-0.00842518 0.00199184 0)
(-0.00855423 0.00195207 0)
(-0.00867545 0.00190987 0)
(-0.00878777 0.00186491 0)
(-0.00889 0.00181675 0)
(-0.00898088 0.00176475 0)
(-0.00905911 0.00170806 0)
(-0.00912339 0.00164555 0)
(-0.0091725 0.00157584 0)
(-0.00920547 0.00149723 0)
(-0.00922162 0.00140781 0)
(-0.00922077 0.00130554 0)
(-2.11391e-05 0.00108609 0)
(-0.000129945 0.00207084 0)
(-0.000300955 0.002476 0)
(-0.000476145 0.00262301 0)
(-0.000660484 0.00266928 0)
(-0.000845625 0.0026819 0)
(-0.00103101 0.00268485 0)
(-0.00121654 0.00268532 0)
(-0.0014021 0.00268514 0)
(-0.00158767 0.00268469 0)
(-0.00177326 0.00268405 0)
(-0.00195884 0.00268321 0)
(-0.00214442 0.00268214 0)
(-0.00232999 0.00268084 0)
(-0.00251554 0.00267927 0)
(-0.00270104 0.00267742 0)
(-0.00288651 0.00267526 0)
(-0.00307191 0.00267275 0)
(-0.00325723 0.00266987 0)
(-0.00344246 0.00266657 0)
(-0.00362757 0.00266282 0)
(-0.00381254 0.00265858 0)
(-0.00399735 0.0026538 0)
(-0.00418195 0.00264844 0)
(-0.00436633 0.00264245 0)
(-0.00455044 0.00263577 0)
(-0.00473423 0.00262834 0)
(-0.00491766 0.00262011 0)
(-0.00510067 0.002611 0)
(-0.0052832 0.00260096 0)
(-0.00546517 0.00258992 0)
(-0.0056465 0.00257779 0)
(-0.00582711 0.00256452 0)
(-0.00600688 0.00255001 0)
(-0.0061857 0.00253419 0)
(-0.00636344 0.00251698 0)
(-0.00653994 0.00249829 0)
(-0.00671503 0.00247803 0)
(-0.00688852 0.00245613 0)
(-0.00706019 0.0024325 0)
(-0.00722978 0.00240704 0)
(-0.007397 0.00237967 0)
(-0.00756154 0.00235029 0)
(-0.00772301 0.0023188 0)
(-0.00788099 0.0022851 0)
(-0.008035 0.00224907 0)
(-0.00818448 0.00221058 0)
(-0.00832882 0.00216947 0)
(-0.00846731 0.00212554 0)
(-0.00859916 0.00207854 0)
(-0.00872351 0.00202814 0)
(-0.00883938 0.00197394 0)
(-0.00894576 0.00191541 0)
(-0.00904155 0.00185185 0)
(-0.00912566 0.00178242 0)
(-0.00919702 0.00170605 0)
(-0.00925466 0.00162151 0)
(-0.00929779 0.00152734 0)
(-0.00932586 0.00142196 0)
(-0.00933869 0.00130376 0)
(-2.10032e-05 0.0011603 0)
(-0.000129604 0.00221327 0)
(-0.000300557 0.00264678 0)
(-0.00047581 0.00280413 0)
(-0.000660262 0.00285368 0)
(-0.000845534 0.00286721 0)
(-0.00103106 0.00287039 0)
(-0.00121674 0.00287093 0)
(-0.00140247 0.00287078 0)
(-0.00158822 0.00287036 0)
(-0.001774 0.00286973 0)
(-0.0019598 0.00286889 0)
(-0.00214561 0.00286783 0)
(-0.00233144 0.00286652 0)
(-0.00251726 0.00286494 0)
(-0.00270308 0.00286306 0)
(-0.00288887 0.00286086 0)
(-0.00307464 0.00285829 0)
(-0.00326037 0.00285534 0)
(-0.00344604 0.00285196 0)
(-0.00363163 0.0028481 0)
(-0.00381713 0.00284373 0)
(-0.00400251 0.0028388 0)
(-0.00418775 0.00283325 0)
(-0.00437281 0.00282703 0)
(-0.00455765 0.00282009 0)
(-0.00474225 0.00281235 0)
(-0.00492654 0.00280376 0)
(-0.00511049 0.00279424 0)
(-0.00529402 0.00278371 0)
(-0.00547707 0.00277211 0)
(-0.00565957 0.00275934 0)
(-0.00584142 0.00274532 0)
(-0.00602252 0.00272997 0)
(-0.00620276 0.00271317 0)
(-0.00638201 0.00269484 0)
(-0.00656012 0.00267487 0)
(-0.00673692 0.00265316 0)
(-0.00691221 0.0026296 0)
(-0.00708578 0.00260406 0)
(-0.00725738 0.00257643 0)
(-0.00742674 0.00254658 0)
(-0.00759351 0.00251437 0)
(-0.00775736 0.00247967 0)
(-0.00791785 0.00244231 0)
(-0.00807453 0.00240211 0)
(-0.00822687 0.00235887 0)
(-0.00837428 0.00231237 0)
(-0.00851611 0.00226234 0)
(-0.00865163 0.00220843 0)
(-0.00878005 0.00215027 0)
(-0.0089005 0.00208737 0)
(-0.00901209 0.00201915 0)
(-0.00911387 0.0019449 0)
(-0.00920491 0.00186378 0)
(-0.0092843 0.00177481 0)
(-0.00935122 0.00167684 0)
(-0.00940501 0.00156864 0)
(-0.0094452 0.00144889 0)
(-0.00947154 0.00131624 0)
(-2.08569e-05 0.00123426 0)
(-0.000129234 0.00235556 0)
(-0.00030012 0.00281757 0)
(-0.000475434 0.00298534 0)
(-0.00066 0.0030382 0)
(-0.000845405 0.00305265 0)
(-0.00103108 0.00305608 0)
(-0.00121691 0.0030567 0)
(-0.00140281 0.0030566 0)
(-0.00158875 0.00305621 0)
(-0.00177473 0.00305561 0)
(-0.00196074 0.0030548 0)
(-0.0021468 0.00305376 0)
(-0.00233288 0.00305247 0)
(-0.00251899 0.0030509 0)
(-0.00270513 0.00304902 0)
(-0.00289127 0.00304681 0)
(-0.00307742 0.00304423 0)
(-0.00326357 0.00304125 0)
(-0.0034497 0.00303782 0)
(-0.0036358 0.0030339 0)
(-0.00382185 0.00302945 0)
(-0.00400783 0.00302441 0)
(-0.00419372 0.00301872 0)
(-0.00437949 0.00301234 0)
(-0.00456512 0.0030052 0)
(-0.00475056 0.00299722 0)
(-0.00493578 0.00298834 0)
(-0.00512072 0.00297847 0)
(-0.00530532 0.00296755 0)
(-0.00548954 0.00295547 0)
(-0.00567329 0.00294214 0)
(-0.00585649 0.00292747 0)
(-0.00603903 0.00291136 0)
(-0.00622083 0.00289369 0)
(-0.00640174 0.00287434 0)
(-0.00658162 0.00285321 0)
(-0.00676031 0.00283015 0)
(-0.00693763 0.00280503 0)
(-0.00711336 0.00277771 0)
(-0.00728726 0.00274804 0)
(-0.00745906 0.00271585 0)
(-0.00762845 0.00268097 0)
(-0.00779508 0.0026432 0)
(-0.00795855 0.00260235 0)
(-0.00811843 0.00255819 0)
(-0.00827421 0.00251045 0)
(-0.00842536 0.00245884 0)
(-0.00857125 0.00240303 0)
(-0.00871123 0.00234263 0)
(-0.00884457 0.00227719 0)
(-0.0089705 0.00220618 0)
(-0.00908823 0.00212898 0)
(-0.00919692 0.00204489 0)
(-0.00929576 0.00195306 0)
(-0.00938397 0.00185259 0)