/*--------------------------------*- C++ -*----------------------------------*\
  =========                 |
  \\      /  F ield         | OpenFOAM: The Open Source CFD Toolbox
   \\    /   O peration     | Website:  https://openfoam.org
    \\  /    A nd           | Version:  8
     \\/     M anipulation  |
\*---------------------------------------------------------------------------*/
FoamFile
{
    version     2.0;
    format      ascii;
    class       volScalarField;
    location    "11.5";
    object      p;
}
// * * * * * * * * * * * * * * * * * * * * * * * * * * * * * * * * * * * * * //

dimensions      [0 2 -2 0 0 0 0];

internalField   nonuniform List<scalar> 
464
(
9.50716e-09
4.98667e-06
1.52351e-05
3.0372e-05
5.00769e-05
7.38597e-05
0.000101209
0.000131352
0.000164161
0.000197257
0.000234309
0.000264952
-4.89674e-06
1.88577e-07
1.06664e-05
2.61408e-05
4.62806e-05
7.0586e-05
9.85324e-05
0.000129372
0.000162921
0.000196933
0.000234971
0.000266911
-1.53346e-05
-1.00096e-05
9.6003e-07
1.7153e-05
3.8211e-05
6.35983e-05
9.27181e-05
0.000124795
0.000159252
0.000194766
0.000231774
0.000266236
-3.13725e-05
-2.56726e-05
-1.39382e-05
3.37338e-06
2.5866e-05
5.29623e-05
8.40195e-05
0.000118255
0.000155042
0.000193101
0.000232691
0.000269975
-5.34654e-05
-4.72401e-05
-3.44395e-05
-1.55709e-05
8.90845e-06
3.83561e-05
7.20413e-05
0.000109124
0.000148738
0.000189797
0.000231637
0.000272595
-8.21516e-05
-7.52271e-05
-6.10188e-05
-4.00935e-05
-1.30007e-05
1.95415e-05
5.67053e-05
9.75818e-05
0.000141242
0.000186594
0.000232826
0.00027822
-0.000118165
-0.000110336
-9.43279e-05
-7.0769e-05
-4.03607e-05
-3.90863e-06
3.7618e-05
8.32127e-05
0.00013182
0.000182297
0.000233594
0.00028446
-0.000162495
-0.000153492
-0.00013521
-0.00010831
-7.37691e-05
-3.24606e-05
1.44429e-05
6.58328e-05
0.000120533
0.00017735
0.000235127
0.000292536
-0.000216149
-0.000205686
-0.000184606
-0.000153534
-0.000113933
-6.6679e-05
-1.32723e-05
4.50775e-05
0.000107044
0.000171361
0.00023678
0.000302004
-0.000281418
-0.00026888
-0.000244237
-0.000207647
-0.000161782
-0.000107219
-4.60113e-05
2.06057e-05
9.11241e-05
0.000164219
0.000238582
0.000312906
-0.000356077
-0.000341605
-0.000313266
-0.000270702
-0.000217821
-0.000154629
-8.42491e-05
-7.93749e-06
7.24958e-05
0.000155695
0.000240325
0.00032512
-0.000457572
-0.000437147
-0.000402781
-0.000348489
-0.000285356
-0.000210223
-0.000128608
-4.08737e-05
5.09231e-05
0.000145583
0.000241846
0.000338512
-0.000552392
-0.000530193
-0.00049145
-0.000429304
-0.000357815
-0.000271287
-0.000178217
-7.80585e-05
2.6312e-05
0.000133656
0.000242525
0.000352089
-0.000721016
-0.000679656
-0.000632872
-0.000542262
-0.000456561
-0.000347407
-0.000237825
-0.000121149
-1.79003e-06
0.000119996
0.00024384
0.000368719
-0.000832408
-0.000794207
-0.000739595
-0.000640589
-0.000543314
-0.000419646
-0.000296852
-0.000165372
-3.19976e-05
0.000103538
0.000240004
0.000377818
-0.0011346
-0.00102511
-0.000964599
-0.000796086
-0.000681009
-0.000515417
-0.000372576
-0.000217352
-6.57452e-05
8.72287e-05
0.000241843
0.000398332
-0.0012543
-0.00117705
-0.00109081
-0.00091886
-0.000780104
-0.000597472
-0.000437076
-0.00026522
-9.95842e-05
6.56985e-05
0.000230115
0.000396567
-0.00187562
-0.00149792
-0.00143157
-0.00110161
-0.000944338
-0.000698517
-0.000515569
-0.000316401
-0.000132809
4.99815e-05
0.00023209
0.000416823
-0.00201828
-0.00178511
-0.00159868
-0.00127737
-0.00105491
-0.000786856
-0.00057708
-0.000361445
-0.000165799
2.57615e-05
0.000212503
0.00040114
-0.00368487
-0.00203671
-0.00197625
-0.00138216
-0.00115973
-0.000843783
-0.00061402
-0.000390111
-0.000182311
1.65919e-05
0.000211577
0.000408569
0.000307794
0.000328422
0.000350596
0.000365762
0.000379073
0.000388583
0.00039507
0.000398173
0.000311561
0.000334056
0.000358025
0.000374805
0.000389345
0.000399954
0.000407148
0.000410604
0.000302595
0.000331408
0.000358577
0.000380424
0.000398577
0.000412184
0.000421331
0.00042571
0.000308969
0.000340721
0.000370436
0.000394876
0.000415149
0.00043052
0.00044091
0.000445978
0.000312649
0.000349159
0.000382437
0.000411074
0.000434825
0.000453011
0.000465326
0.000471318
0.000322605
0.000363492
0.000400896
0.000433441
0.000460644
0.000481701
0.000496027
0.000503037
0.00033391
0.000380405
0.000423077
0.000460688
0.000492269
0.000516894
0.000533703
0.000541982
0.000348488
0.000401516
0.000450474
0.000494026
0.000530824
0.000559817
0.000579659
0.000589531
0.000365753
0.000426603
0.000483125
0.000533905
0.000577054
0.000611519
0.000635087
0.000647004
0.000385849
0.000455951
0.000521537
0.000581222
0.000632246
0.000674037
0.000702367
0.000717309
0.000408718
0.000489653
0.000565812
0.000635962
0.000695718
0.000745883
0.000779307
0.000797757
0.000434426
0.000528387
0.000618023
0.000703415
0.000776365
0.000842536
0.000884347
0.00091116
0.000460932
0.000567978
0.000669873
0.000769287
0.000851127
0.000931475
0.000977991
0.00101295
0.000494345
0.000621129
0.000743032
0.000872261
0.000974478
0.00109294
0.0011549
0.00121467
0.000516061
0.000656844
0.000787594
0.000936061
0.00104132
0.00118667
0.00124734
0.00133155
0.000557197
0.000727449
0.000884976
0.00108839
0.00122807
0.0014614
0.00155707
0.0017237
0.000562512
0.000744959
0.000898343
0.00112625
0.00124323
0.00152942
0.00159399
0.00184368
0.000603634
0.000819906
0.00100859
0.0013184
0.00149659
0.00197143
0.00212886
0.0026942
0.000584998
0.000806104
0.00096242
0.00129498
0.00137205
0.00193324
0.00191775
0.00272317
0.000608351
0.000840065
0.00103669
0.00143087
0.00160877
0.00246836
0.00272782
0.00495006
0.000365253
0.000365733
0.000366644
0.000367788
0.000369006
0.000370092
0.00037091
0.000371323
0.000365681
0.000366194
0.000367149
0.000368366
0.000369606
0.000370721
0.000371548
0.000371967
0.000362912
0.000363715
0.00036519
0.000366951
0.000368834
0.000370458
0.000371676
0.000372286
0.000364161
0.000365098
0.000366753
0.000368794
0.000370777
0.000372536
0.000373809
0.000374452
0.000357105
0.000359037
0.00036224
0.000365761
0.000369381
0.000372359
0.00037454
0.000375618
0.000359297
0.00036152
0.000365147
0.00036925
0.000373092
0.000376373
0.0003787
0.000379862
0.000343322
0.000349076
0.000357033
0.000364554
0.000371742
0.000377295
0.00038122
0.00038313
0.000346704
0.00035297
0.000361847
0.000370293
0.000378047
0.00038418
0.000388452
0.000390546
)
;

boundaryField
{
    movingWall
    {
        type            zeroGradient;
    }
    fixedWalls
    {
        type            zeroGradient;
    }
    frontAndBack
    {
        type            empty;
    }
}


// ************************************************************************* //
