/*--------------------------------*- C++ -*----------------------------------*\
  =========                 |
  \\      /  F ield         | OpenFOAM: The Open Source CFD Toolbox
   \\    /   O peration     | Website:  https://openfoam.org
    \\  /    A nd           | Version:  8
     \\/     M anipulation  |
\*---------------------------------------------------------------------------*/
FoamFile
{
    version     2.0;
    format      ascii;
    class       volVectorField;
    location    "11.5";
    object      U;
}
// * * * * * * * * * * * * * * * * * * * * * * * * * * * * * * * * * * * * * //

dimensions      [0 1 -1 0 0 0 0];

internalField   nonuniform List<vector> 
464
(
(-5.97318e-05 5.89503e-05 0)
(-0.000179821 5.88413e-05 0)
(-0.000296952 5.5892e-05 0)
(-0.000406268 5.15902e-05 0)
(-0.000505665 4.61008e-05 0)
(-0.0005929 3.96058e-05 0)
(-0.000665776 3.23195e-05 0)
(-0.000725033 2.42365e-05 0)
(-0.000762872 1.57778e-05 0)
(-0.00080292 5.8425e-06 0)
(-0.00078351 -2.98634e-06 0)
(-0.00084335 -1.0825e-05 0)
(-6.2604e-05 0.000180913 0)
(-0.00018843 0.000180532 0)
(-0.000311076 0.000171442 0)
(-0.000425439 0.000158199 0)
(-0.000529314 0.000141341 0)
(-0.000620347 0.000121505 0)
(-0.000696484 9.95187e-05 0)
(-0.000758255 7.60848e-05 0)
(-0.000798851 5.38408e-05 0)
(-0.00084016 2.91184e-05 0)
(-0.000824064 2.32566e-05 0)
(-0.000884322 -1.25756e-05 0)
(-6.57037e-05 0.000309136 0)
(-0.000197713 0.000308382 0)
(-0.000326234 0.000292701 0)
(-0.000445824 0.000269872 0)
(-0.000554116 0.000240826 0)
(-0.000648496 0.000206633 0)
(-0.000726655 0.000168571 0)
(-0.000787519 0.000127793 0)
(-0.000827558 8.70918e-05 0)
(-0.000852068 4.35468e-05 0)
(-0.000843514 1.79485e-05 0)
(-0.000830943 -3.51936e-05 0)
(-7.05067e-05 0.000444549 0)
(-0.000212087 0.000443278 0)
(-0.000349694 0.000420409 0)
(-0.000477391 0.000387156 0)
(-0.000592645 0.000344914 0)
(-0.00069271 0.000295197 0)
(-0.000775447 0.000239664 0)
(-0.000839866 0.000179694 0)
(-0.000883237 0.000117458 0)
(-0.000909448 5.27889e-05 0)
(-0.000902933 -7.3267e-06 0)
(-0.000888022 -7.71432e-05 0)
(-7.72323e-05 0.000591527 0)
(-0.000232184 0.00058949 0)
(-0.00038243 0.000558485 0)
(-0.000521319 0.000513505 0)
(-0.000646076 0.000456581 0)
(-0.000753746 0.00038978 0)
(-0.000842158 0.000315326 0)
(-0.000909726 0.000235212 0)
(-0.000954464 0.000151984 0)
(-0.000976851 6.62184e-05 0)
(-0.000973448 -1.58521e-05 0)
(-0.000948446 -0.000105656 0)
(-8.61869e-05 0.000753902 0)
(-0.000258871 0.000750702 0)
(-0.000425779 0.000710226 0)
(-0.000579295 0.000651676 0)
(-0.00071637 0.000578034 0)
(-0.000833965 0.000491975 0)
(-0.000930015 0.000396371 0)
(-0.00100321 0.000293656 0)
(-0.00105223 0.000186102 0)
(-0.00107728 7.49735e-05 0)
(-0.00107481 -3.67871e-05 0)
(-0.00104837 -0.00015066 0)
(-9.78183e-05 0.000936595 0)
(-0.000293371 0.000931536 0)
(-0.000481582 0.000879699 0)
(-0.000653512 0.000804964 0)
(-0.000805777 0.00071192 0)
(-0.000935408 0.000603908 0)
(-0.00104048 0.000484772 0)
(-0.00112 0.000357498 0)
(-0.00117315 0.00022481 0)
(-0.00119974 8.85474e-05 0)
(-0.00119908 -4.8607e-05 0)
(-0.00117179 -0.000187952 0)
(-0.000112845 0.00114496 0)
(-0.000337518 0.00113696 0)
(-0.000552505 0.00107126 0)
(-0.000747074 0.000976694 0)
(-0.000917426 0.00086072 0)
(-0.00106111 0.000727199 0)
(-0.00117643 0.000581424 0)
(-0.00126317 0.000426852 0)
(-0.00132118 0.000266471 0)
(-0.0013507 0.000102281 0)
(-0.00135131 -6.38613e-05 0)
(-0.00132341 -0.000230922 0)
(-0.000132232 0.0013884 0)
(-0.000393665 0.00137462 0)
(-0.000642034 0.00129117 0)
(-0.000864057 0.0011708 0)
(-0.00105527 0.00102704 0)
(-0.0012147 0.000863301 0)
(-0.00134082 0.000687192 0)
(-0.00143495 0.000502414 0)
(-0.00149772 0.000312264 0)
(-0.00153007 0.000118679 0)
(-0.00153228 -7.68405e-05 0)
(-0.00150435 -0.00027366 0)
(-0.000158639 0.0016654 0)
(-0.000466985 0.00164472 0)
(-0.000756549 0.00154078 0)
(-0.00101121 0.00138887 0)
(-0.00122492 0.0012123 0)
(-0.00140096 0.00101268 0)
(-0.00153731 0.000802014 0)
(-0.0016381 0.000583828 0)
(-0.00170492 0.000361696 0)
(-0.00173981 0.000137078 0)
(-0.00174365 -8.92584e-05 0)
(-0.00171635 -0.000317207 0)
(-0.000191444 0.00203275 0)
(-0.000557081 0.00198604 0)
(-0.000898133 0.00184926 0)
(-0.00119254 0.0016428 0)
(-0.00143146 0.00142162 0)
(-0.00162499 0.00117571 0)
(-0.00176968 0.000924855 0)
(-0.00187527 0.000669728 0)
(-0.00194447 0.000413859 0)
(-0.00198102 0.000157408 0)
(-0.00198657 -0.000100239 0)
(-0.00196111 -0.000360217 0)
(-0.000252057 0.00237274 0)
(-0.000697483 0.00231316 0)
(-0.00110007 0.002151 0)
(-0.00143887 0.00189744 0)
(-0.00169198 0.00163578 0)
(-0.00189774 0.00134257 0)
(-0.00204329 0.00105049 0)
(-0.00214909 0.00075692 0)
(-0.00221724 0.000466857 0)
(-0.00225391 0.000179056 0)
(-0.00226128 -0.000108784 0)
(-0.00223952 -0.000400038 0)
(-0.000306296 0.00305935 0)
(-0.000834529 0.00288183 0)
(-0.0013141 0.00266298 0)
(-0.0017079 0.00225498 0)
(-0.0019863 0.0019207 0)
(-0.00221033 0.00153571 0)
(-0.00235533 0.00118528 0)
(-0.00245891 0.000844986 0)
(-0.00252233 0.000518948 0)
(-0.00255667 0.000200933 0)
(-0.00256566 -0.000116092 0)
(-0.00254946 -0.000438428 0)
(-0.00049968 0.00340932 0)
(-0.00116439 0.00321668 0)
(-0.00172706 0.00296339 0)
(-0.00218129 0.00249015 0)
(-0.00241097 0.00211427 0)
(-0.00263315 0.00167404 0)
(-0.00273394 0.00128715 0)
(-0.00281541 0.000913466 0)
(-0.00286128 0.00056166 0)
(-0.00288895 0.000222364 0)
(-0.00290064 -0.000112011 0)
(-0.00289713 -0.000452582 0)
(-0.000577763 0.00490503 0)
(-0.00136146 0.00419485 0)
(-0.00204028 0.00385317 0)
(-0.00255816 0.00296005 0)
(-0.00280234 0.00248433 0)
(-0.00303784 0.00186378 0)
(-0.00311596 0.0014121 0)
(-0.00318446 0.000980169 0)
(-0.00321345 0.000597377 0)
(-0.00323034 0.000238083 0)
(-0.00324059 -0.000114627 0)
(-0.00324547 -0.000476945 0)
(-0.00132348 0.00512674 0)
(-0.00233081 0.00447668 0)
(-0.00296012 0.0040511 0)
(-0.00355071 0.00309735 0)
(-0.00350556 0.00256391 0)
(-0.00370532 0.00189761 0)
(-0.00361712 0.00142702 0)
(-0.00363007 0.000982983 0)
(-0.00360332 0.000601789 0)
(-0.00360095 0.000250935 0)
(-0.0036157 -8.61741e-05 0)
(-0.00364941 -0.000432681 0)
(-0.00133152 0.00896659 0)
(-0.00257427 0.00591896 0)
(-0.003416 0.00542134 0)
(-0.00405221 0.00348098 0)
(-0.00400223 0.00284822 0)
(-0.00417613 0.00194182 0)
(-0.00403077 0.00143093 0)
(-0.00400992 0.0009542 0)
(-0.00394554 0.000580062 0)
(-0.00391828 0.000243306 0)
(-0.00392414 -7.65619e-05 0)
(-0.0039622 -0.000409062 0)
(-0.00451286 0.00855937 0)
(-0.00608371 0.00624848 0)
(-0.00536943 0.00537901 0)
(-0.00612459 0.00345609 0)
(-0.00503638 0.00268485 0)
(-0.0051208 0.00178909 0)
(-0.00460149 0.00128235 0)
(-0.00447816 0.000842624 0)
(-0.00431098 0.000515622 0)
(-0.00425401 0.000233707 0)
(-0.00426412 -2.5417e-05 0)
(-0.00434401 -0.000292856 0)
(-0.00641425 0.0205824 0)
(-0.0069206 0.00656791 0)
(-0.00662231 0.00609251 0)
(-0.00667145 0.00288995 0)
(-0.00545267 0.00214338 0)
(-0.00524823 0.00137557 0)
(-0.00457955 0.000903444 0)
(-0.00433862 0.000607651 0)
(-0.00408587 0.000367058 0)
(-0.00396691 0.000179874 0)
(-0.00393673 1.21075e-05 0)
(-0.00397927 -0.000159764 0)
(0.0219138 0.0206858 0)
(0.0209906 0.0060316 0)
(0.0330573 0.00504047 0)
(0.0336026 0.00206431 0)
(0.0371019 0.00135316 0)
(0.0377942 0.0007776 0)
(0.0388529 0.000453237 0)
(0.0393473 0.00029137 0)
(0.0396965 0.000168897 0)
(0.0398924 8.48487e-05 0)
(0.039959 8.52694e-06 0)
(0.0399174 -6.73259e-05 0)
(-0.000731041 0.000393764 0)
(-0.000499141 0.00020506 0)
(-0.00042904 3.98611e-05 0)
(-0.000331626 -5.90585e-05 0)
(-0.000261768 -0.000135465 0)
(-0.000185015 -0.000187519 0)
(-0.000110667 -0.000221126 0)
(-3.6447e-05 -0.000232009 0)
(-0.000772511 6.01054e-05 0)
(-0.000548424 -3.20301e-05 0)
(-0.000473057 -9.4839e-05 0)
(-0.000371093 -0.000170135 0)
(-0.000294706 -0.00022778 0)
(-0.000211357 -0.00027419 0)
(-0.000127395 -0.000305145 0)
(-4.22281e-05 -0.000313431 0)
(-0.000761732 1.44773e-05 0)
(-0.000654174 -8.46743e-05 0)
(-0.000567141 -0.000155771 0)
(-0.000464555 -0.000240126 0)
(-0.000365817 -0.000307235 0)
(-0.000262433 -0.000360898 0)
(-0.000157166 -0.000397359 0)
(-5.19343e-05 -0.000406216 0)
(-0.000822071 -0.000124818 0)
(-0.000718631 -0.000208229 0)
(-0.000628519 -0.000282004 0)
(-0.000522554 -0.000357763 0)
(-0.000415485 -0.000422954 0)
(-0.000301559 -0.000475882 0)
(-0.000182143 -0.000512919 0)
(-6.04382e-05 -0.000519826 0)
(-0.000892814 -0.000176195 0)
(-0.000811352 -0.000276103 0)
(-0.000716679 -0.000367616 0)
(-0.0006055 -0.000458068 0)
(-0.000483936 -0.000536633 0)
(-0.000352493 -0.000599632 0)
(-0.00021315 -0.00064313 0)
(-7.07857e-05 -0.000650204 0)
(-0.000992522 -0.000260136 0)
(-0.000910045 -0.00037384 0)
(-0.000810488 -0.000482015 0)
(-0.00069157 -0.000583813 0)
(-0.000557051 -0.000672979 0)
(-0.000408178 -0.000745182 0)
(-0.000247777 -0.000795637 0)
(-8.24531e-05 -0.000802998 0)
(-0.001116 -0.000323653 0)
(-0.00103323 -0.000461608 0)
(-0.000926651 -0.000593205 0)
(-0.000796463 -0.00071594 0)
(-0.000645307 -0.000823185 0)
(-0.000475302 -0.000910553 0)
(-0.000289557 -0.000971654 0)
(-9.65863e-05 -0.00098076 0)
(-0.00126618 -0.000396421 0)
(-0.0011796 -0.000560332 0)
(-0.00106482 -0.000717678 0)
(-0.00092155 -0.000864752 0)
(-0.000751666 -0.00099434 0)
(-0.000556833 -0.00110157 0)
(-0.000340683 -0.00117658 0)
(-0.000114071 -0.00118908 0)
(-0.00144541 -0.000469776 0)
(-0.00135448 -0.0006641 0)
(-0.00123107 -0.000852322 0)
(-0.00107312 -0.00103041 0)
(-0.000882126 -0.00118882 0)
(-0.000657776 -0.0013238 0)
(-0.000404581 -0.00141777 0)
(-0.000136369 -0.00143757 0)
(-0.00165662 -0.000546021 0)
(-0.00156214 -0.000774539 0)
(-0.00143113 -0.000998488 0)
(-0.00125805 -0.00121435 0)
(-0.00104505 -0.00140748 0)
(-0.000786064 -0.00157787 0)
(-0.000487676 -0.00169447 0)
(-0.000166816 -0.00172458 0)
(-0.00190274 -0.00062341 0)
(-0.00180695 -0.000890123 0)
(-0.00167087 -0.00115672 0)
(-0.00148213 -0.00142354 0)
(-0.00124564 -0.00166593 0)
(-0.000945121 -0.00189922 0)
(-0.000591275 -0.00205268 0)
(-0.000206123 -0.00211424 0)
(-0.00218653 -0.000697137 0)
(-0.00209545 -0.00100187 0)
(-0.00196455 -0.00130926 0)
(-0.00176731 -0.00162658 0)
(-0.0015207 -0.00190924 0)
(-0.00117329 -0.00220397 0)
(-0.000751211 -0.00238287 0)
(-0.000276469 -0.00247569 0)
(-0.00250456 -0.000773685 0)
(-0.00241906 -0.00112957 0)
(-0.0022955 -0.00150103 0)
(-0.00208214 -0.00192317 0)
(-0.00182284 -0.00228868 0)
(-0.00141942 -0.00275915 0)
(-0.000920763 -0.00300967 0)
(-0.0003563 -0.00323444 0)
(-0.0028777 -0.000808062 0)
(-0.00282291 -0.00119125 0)
(-0.00275817 -0.00158623 0)
(-0.00255533 -0.00206924 0)
(-0.00235649 -0.00245341 0)
(-0.0018954 -0.00303792 0)
(-0.00129974 -0.00329879 0)
(-0.000574043 -0.00363175 0)
(-0.00324312 -0.000866812 0)
(-0.00319714 -0.00131706 0)
(-0.00317296 -0.00178736 0)
(-0.00294943 -0.00247458 0)
(-0.00278989 -0.00299504 0)
(-0.00226668 -0.00403691 0)
(-0.00159834 -0.00445634 0)
(-0.000774619 -0.00533371 0)
(-0.00371795 -0.000803043 0)
(-0.00374405 -0.00124739 0)
(-0.00391586 -0.00168239 0)
(-0.00376518 -0.00241848 0)
(-0.00391804 -0.0028754 0)
(-0.00336128 -0.00411263 0)
(-0.00271421 -0.00445886 0)
(-0.00157323 -0.00574279 0)
(-0.00405743 -0.000775418 0)
(-0.0040761 -0.00125991 0)
(-0.00434206 -0.0017606 0)
(-0.00414202 -0.00276227 0)
(-0.00447422 -0.00343524 0)
(-0.00385685 -0.00569942 0)
(-0.0033345 -0.00644274 0)
(-0.00220987 -0.0101419 0)
(-0.00456408 -0.000579513 0)
(-0.00472515 -0.000988721 0)
(-0.0054125 -0.0013502 0)
(-0.00544044 -0.00230164 0)
(-0.00684373 -0.00267926 0)
(-0.00637445 -0.00511667 0)
(-0.00730911 -0.00540635 0)
(-0.0053718 -0.0107179 0)
(-0.00418745 -0.000361172 0)
(-0.00424195 -0.000616115 0)
(-0.00498827 -0.000964323 0)
(-0.00467599 -0.00178687 0)
(-0.00635145 -0.00241367 0)
(-0.00506674 -0.00610588 0)
(-0.00690385 -0.00758134 0)
(-0.00377973 -0.0241849 0)
(0.0396809 -0.000181285 0)
(0.0395523 -0.000301078 0)
(0.0383502 -0.000576881 0)
(0.0386289 -0.00112746 0)
(0.0344325 -0.00160057 0)
(0.0357187 -0.004611 0)
(0.0219596 -0.00543573 0)
(0.0241764 -0.0199948 0)
(-5.67928e-06 -4.27331e-07 0)
(-1.60596e-05 -1.05916e-06 0)
(-2.35287e-05 -2.02316e-06 0)
(-2.70526e-05 -3.37027e-06 0)
(-2.63759e-05 -4.15311e-06 0)
(-2.18199e-05 -4.91436e-06 0)
(-1.42117e-05 -5.39476e-06 0)
(-4.86341e-06 -5.55424e-06 0)
(-6.47696e-06 2.28641e-05 0)
(-1.80593e-05 1.95786e-05 0)
(-2.63793e-05 1.34202e-05 0)
(-2.98024e-05 6.44283e-06 0)
(-2.85242e-05 -9.04451e-07 0)
(-2.35622e-05 -6.97225e-06 0)
(-1.52948e-05 -1.13708e-05 0)
(-5.25126e-06 -1.32552e-05 0)
(-9.58187e-06 2.22922e-05 0)
(-2.63634e-05 1.72602e-05 0)
(-3.72109e-05 8.55841e-06 0)
(-4.20015e-05 -1.83471e-06 0)
(-4.03993e-05 -1.10992e-05 0)
(-3.27919e-05 -1.91396e-05 0)
(-2.11459e-05 -2.47814e-05 0)
(-7.18111e-06 -2.70853e-05 0)
(-1.20739e-05 6.24911e-05 0)
(-3.23647e-05 5.04436e-05 0)
(-4.54834e-05 3.11398e-05 0)
(-4.94654e-05 1.0705e-05 0)
(-4.58344e-05 -8.99545e-06 0)
(-3.72536e-05 -2.45864e-05 0)
(-2.38625e-05 -3.55058e-05 0)
(-8.17058e-06 -4.00031e-05 0)
(-2.30218e-05 6.13876e-05 0)
(-5.91175e-05 4.60757e-05 0)
(-7.69592e-05 2.24888e-05 0)
(-8.21359e-05 -2.94733e-06 0)
(-7.56892e-05 -2.52157e-05 0)
(-5.93082e-05 -4.3696e-05 0)
(-3.75029e-05 -5.6475e-05 0)
(-1.26121e-05 -6.15435e-05 0)
(-2.886e-05 0.000153802 0)
(-7.27523e-05 0.00011167 0)
(-9.45209e-05 5.83911e-05 0)
(-9.7173e-05 1.11954e-05 0)
(-8.65863e-05 -2.93916e-05 0)
(-6.85264e-05 -5.93303e-05 0)
(-4.31365e-05 -7.92689e-05 0)
(-1.46535e-05 -8.70179e-05 0)
(-6.86867e-05 0.000150703 0)
(-0.000158057 0.000101902 0)
(-0.000177454 4.07253e-05 0)
(-0.000169911 -1.22458e-05 0)
(-0.000146208 -5.77888e-05 0)
(-0.000109196 -9.18669e-05 0)
(-6.72134e-05 -0.000114873 0)
(-2.23704e-05 -0.000123355 0)
(-8.5786e-05 0.000402981 0)
(-0.000186397 0.000234849 0)
(-0.000208733 7.5872e-05 0)
(-0.000195702 -1.67826e-05 0)
(-0.000166219 -8.59174e-05 0)
(-0.00012564 -0.000132369 0)
(-7.74988e-05 -0.000161719 0)
(-2.5985e-05 -0.000171845 0)
)
;

boundaryField
{
    movingWall
    {
        type            fixedValue;
        value           uniform (1 0 0);
    }
    fixedWalls
    {
        type            noSlip;
    }
    frontAndBack
    {
        type            empty;
    }
}


// ************************************************************************* //
