/*--------------------------------*- C++ -*----------------------------------*\
  =========                 |
  \\      /  F ield         | OpenFOAM: The Open Source CFD Toolbox
   \\    /   O peration     | Website:  https://openfoam.org
    \\  /    A nd           | Version:  8
     \\/     M anipulation  |
\*---------------------------------------------------------------------------*/
FoamFile
{
    version     2.0;
    format      ascii;
    class       surfaceScalarField;
    location    "31";
    object      phi;
}
// * * * * * * * * * * * * * * * * * * * * * * * * * * * * * * * * * * * * * //

dimensions      [0 3 -1 0 0 0 0];

internalField   nonuniform List<scalar> 
22960
(
-1.99761e-07
1.99767e-07
-6.74479e-07
4.74718e-07
-1.25786e-06
5.83385e-07
-1.87688e-06
6.1902e-07
-2.50317e-06
6.26285e-07
-3.1296e-06
6.26433e-07
-3.75548e-06
6.25881e-07
-4.38113e-06
6.25651e-07
-5.00684e-06
6.2571e-07
-5.63278e-06
6.25932e-07
-6.25901e-06
6.26234e-07
-6.88558e-06
6.26571e-07
-7.5125e-06
6.2692e-07
-8.13976e-06
6.27264e-07
-8.76736e-06
6.27593e-07
-9.39525e-06
6.27895e-07
-1.00234e-05
6.28161e-07
-1.06518e-05
6.2838e-07
-1.12803e-05
6.28542e-07
-1.1909e-05
6.28636e-07
-1.25376e-05
6.28651e-07
-1.31662e-05
6.28576e-07
-1.37946e-05
6.28398e-07
-1.44227e-05
6.28107e-07
-1.50504e-05
6.27689e-07
-1.56775e-05
6.27132e-07
-1.63039e-05
6.26425e-07
-1.69295e-05
6.25557e-07
-1.7554e-05
6.24517e-07
-1.81773e-05
6.23296e-07
-1.87992e-05
6.21886e-07
-1.94195e-05
6.20282e-07
-2.0038e-05
6.18483e-07
-2.06545e-05
6.1649e-07
-2.12688e-05
6.14311e-07
-2.18807e-05
6.1196e-07
-2.24902e-05
6.0946e-07
-2.3097e-05
6.06847e-07
-2.37012e-05
6.0417e-07
-2.43027e-05
6.01498e-07
-2.49016e-05
5.98922e-07
-2.54982e-05
5.9657e-07
-2.60928e-05
5.94607e-07
-2.66861e-05
5.93257e-07
-2.72789e-05
5.92816e-07
-2.78726e-05
5.9368e-07
-2.84689e-05
5.96378e-07
-2.90706e-05
6.01623e-07
-2.96809e-05
6.10377e-07
-3.03049e-05
6.23939e-07
-3.09489e-05
6.44062e-07
-3.16221e-05
6.73122e-07
-3.23365e-05
7.14444e-07
-3.31097e-05
7.73225e-07
-3.39718e-05
8.62026e-07
-3.4999e-05
1.02729e-06
-3.6411e-05
1.41193e-06
-3.87042e-05
2.29325e-06
-4.50183e-05
6.31409e-06
1.43996e-05
-5.9418e-05
-4.8045e-07
6.80217e-07
-1.39442e-06
1.38869e-06
-2.48633e-06
1.6753e-06
-3.64164e-06
1.77432e-06
-4.81566e-06
1.80031e-06
-5.99417e-06
1.80494e-06
-7.17318e-06
1.80489e-06
-8.35166e-06
1.80413e-06
-9.52928e-06
1.80333e-06
-1.07059e-05
1.80251e-06
-1.18812e-05
1.80161e-06
-1.30552e-05
1.80058e-06
-1.42277e-05
1.79938e-06
-1.53984e-05
1.79797e-06
-1.65672e-05
1.79634e-06
-1.77337e-05
1.79446e-06
-1.88979e-05
1.7923e-06
-2.00593e-05
1.78984e-06
-2.12178e-05
1.78707e-06
-2.23732e-05
1.78394e-06
-2.35249e-05
1.78045e-06
-2.46729e-05
1.77655e-06
-2.58167e-05
1.77223e-06
-2.69561e-05
1.76745e-06
-2.80906e-05
1.76219e-06
-2.92199e-05
1.75643e-06
-3.03436e-05
1.75013e-06
-3.14613e-05
1.74328e-06
-3.25727e-05
1.73586e-06
-3.36772e-05
1.72784e-06
-3.47745e-05
1.71923e-06
-3.58643e-05
1.71002e-06
-3.6946e-05
1.70021e-06
-3.80193e-05
1.68983e-06
-3.90839e-05
1.67891e-06
-4.01395e-05
1.66751e-06
-4.11857e-05
1.65571e-06
-4.22225e-05
1.64362e-06
-4.32498e-05
1.63142e-06
-4.42676e-05
1.61932e-06
-4.52763e-05
1.60761e-06
-4.62764e-05
1.59667e-06
-4.72688e-05
1.58702e-06
-4.82549e-05
1.57933e-06
-4.92366e-05
1.57452e-06
-5.02167e-05
1.5738e-06
-5.11991e-05
1.57882e-06
-5.21893e-05
1.59185e-06
-5.3195e-05
1.61604e-06
-5.4227e-05
1.65589e-06
-5.53008e-05
1.71795e-06
-5.64398e-05
1.81208e-06
-5.76792e-05
1.95383e-06
-5.90754e-05
2.16938e-06
-6.07231e-05
2.50978e-06
-6.27845e-05
3.08866e-06
-6.55132e-05
4.14069e-06
-6.93633e-05
6.14333e-06
-7.42537e-05
1.12045e-05
1.8441e-05
-7.82951e-05
-5.95886e-07
1.2761e-06
-1.69662e-06
2.48942e-06
-3.00076e-06
2.97944e-06
-4.37466e-06
3.14823e-06
-5.76894e-06
3.19459e-06
-7.16792e-06
3.20392e-06
-8.56707e-06
3.20404e-06
-9.96506e-06
3.20212e-06
-1.13614e-05
3.19964e-06
-1.27557e-05
3.19681e-06
-1.41476e-05
3.19358e-06
-1.5537e-05
3.18991e-06
-1.69234e-05
3.18576e-06
-1.83065e-05
3.18107e-06
-1.96859e-05
3.17583e-06
-2.10615e-05
3.16998e-06
-2.24327e-05
3.16349e-06
-2.37991e-05
3.15633e-06
-2.51605e-05
3.14846e-06
-2.65164e-05
3.13984e-06
-2.78664e-05
3.13043e-06
-2.92101e-05
3.12019e-06
-3.05469e-05
3.10908e-06
-3.18765e-05
3.09706e-06
-3.31984e-05
3.08409e-06
-3.45121e-05
3.07012e-06
-3.58171e-05
3.05513e-06
-3.71129e-05
3.03908e-06
-3.8399e-05
3.02195e-06
-3.96749e-05
3.00372e-06
-4.094e-05
2.98437e-06
-4.21939e-05
2.96393e-06
-4.34361e-05
2.9424e-06
-4.46661e-05
2.91983e-06
-4.58835e-05
2.89631e-06
-4.7088e-05
2.87193e-06
-4.82791e-05
2.84686e-06
-4.94568e-05
2.8213e-06
-5.06209e-05
2.79557e-06
-5.17717e-05
2.77003e-06
-5.29093e-05
2.74521e-06
-5.40344e-05
2.72179e-06
-5.5148e-05
2.70067e-06
-5.62517e-05
2.68304e-06
-5.73477e-05
2.67045e-06
-5.84389e-05
2.66502e-06
-5.95296e-05
2.66957e-06
-6.06257e-05
2.68794e-06
-6.17352e-05
2.72546e-06
-6.28689e-05
2.78962e-06
-6.40422e-05
2.89122e-06
-6.52763e-05
3.04622e-06
-6.66016e-05
3.27914e-06
-6.80618e-05
3.62957e-06
-6.97192e-05
4.16717e-06
-7.16506e-05
5.02008e-06
-7.39224e-05
6.41255e-06
-7.65649e-05
8.78579e-06
-7.85705e-05
1.32101e-05
1.89159e-05
-7.90453e-05
-6.35782e-07
1.91189e-06
-1.80615e-06
3.65979e-06
-3.18679e-06
4.36008e-06
-4.63735e-06
4.59879e-06
-6.10774e-06
4.66498e-06
-7.5825e-06
4.67868e-06
-9.05725e-06
4.67879e-06
-1.05306e-05
4.67551e-06
-1.2002e-05
4.67105e-06
-1.3471e-05
4.66581e-06
-1.49372e-05
4.65978e-06
-1.64003e-05
4.65294e-06
-1.78597e-05
4.64522e-06
-1.93153e-05
4.6366e-06
-2.07664e-05
4.62701e-06
-2.22129e-05
4.61642e-06
-2.36542e-05
4.60478e-06
-2.50899e-05
4.59204e-06
-2.65196e-05
4.57815e-06
-2.79428e-05
4.56305e-06
-2.9359e-05
4.5467e-06
-3.07679e-05
4.52904e-06
-3.21688e-05
4.51002e-06
-3.35613e-05
4.48958e-06
-3.49449e-05
4.46767e-06
-3.6319e-05
4.44424e-06
-3.76832e-05
4.41924e-06
-3.90367e-05
4.39264e-06
-4.03792e-05
4.3644e-06
-4.171e-05
4.33451e-06
-4.30285e-05
4.30295e-06
-4.43344e-05
4.26974e-06
-4.56269e-05
4.23491e-06
-4.69056e-05
4.19855e-06
-4.817e-05
4.16075e-06
-4.94198e-05
4.12168e-06
-5.06545e-05
4.08156e-06
-5.18739e-05
4.0407e-06
-5.30778e-05
3.99951e-06
-5.42663e-05
3.95856e-06
-5.54397e-05
3.91855e-06
-5.65983e-05
3.88044e-06
-5.77431e-05
3.84548e-06
-5.88754e-05
3.81529e-06
-5.99969e-05
3.79203e-06
-6.11105e-05
3.77854e-06
-6.22195e-05
3.77865e-06
-6.33291e-05
3.79747e-06
-6.44456e-05
3.84202e-06
-6.5578e-05
3.92201e-06
-6.67379e-05
4.05111e-06
-6.79407e-05
4.24898e-06
-6.92059e-05
4.54441e-06
-7.05574e-05
4.98098e-06
-7.20172e-05
5.62703e-06
-7.35875e-05
6.59031e-06
-7.52117e-05
8.03676e-06
-7.66713e-05
1.02454e-05
-7.70854e-05
1.36242e-05
1.76751e-05
-7.58446e-05
-6.4483e-07
2.55672e-06
-1.83742e-06
4.85238e-06
-3.24263e-06
5.76529e-06
-4.7174e-06
6.07355e-06
-6.21135e-06
6.15893e-06
-7.70926e-06
6.17659e-06
-9.20695e-06
6.17647e-06
-1.07031e-05
6.1717e-06
-1.21973e-05
6.16517e-06
-1.36888e-05
6.15739e-06
-1.51775e-05
6.14843e-06
-1.66628e-05
6.13825e-06
-1.81444e-05
6.1268e-06
-1.96218e-05
6.11403e-06
-2.10947e-05
6.09989e-06
-2.25626e-05
6.08433e-06
-2.40251e-05
6.06728e-06
-2.54818e-05
6.04869e-06
-2.69321e-05
6.02849e-06
-2.83757e-05
6.00663e-06
-2.9812e-05
5.98302e-06
-3.12406e-05
5.95762e-06
-3.26609e-05
5.93034e-06
-3.40724e-05
5.90112e-06
-3.54747e-05
5.8699e-06
-3.68671e-05
5.83661e-06
-3.8249e-05
5.8012e-06
-3.962e-05
5.76362e-06
-4.09794e-05
5.72382e-06
-4.23267e-05
5.68178e-06
-4.36612e-05
5.6375e-06
-4.49825e-05
5.59099e-06
-4.62899e-05
5.54229e-06
-4.75828e-05
5.49151e-06
-4.88608e-05
5.43876e-06
-5.01234e-05
5.38425e-06
-5.13701e-05
5.32827e-06
-5.26006e-05
5.27119e-06
-5.38146e-05
5.21352e-06
-5.5012e-05
5.15594e-06
-5.61928e-05
5.09933e-06
-5.73572e-05
5.04484e-06
-5.85057e-05
4.99399e-06
-5.96391e-05
4.94873e-06
-6.07587e-05
4.91162e-06
-6.18662e-05
4.88602e-06
-6.29639e-05
4.87634e-06
-6.40549e-05
4.88846e-06
-6.51431e-05
4.93024e-06
-6.62334e-05
5.01228e-06
-6.73314e-05
5.14909e-06
-6.8443e-05
5.36065e-06
-6.95735e-05
5.67485e-06
-7.07235e-05
6.13101e-06
-7.18815e-05
6.78498e-06
-7.30053e-05
7.71411e-06
-7.3991e-05
9.02249e-06
-7.45972e-05
1.08516e-05
-7.42707e-05
1.32977e-05
1.61056e-05
-7.27012e-05
-6.45311e-07
3.20203e-06
-1.84434e-06
6.05141e-06
-3.25713e-06
7.17808e-06
-4.73948e-06
7.55591e-06
-6.2407e-06
7.66015e-06
-7.7456e-06
7.6815e-06
-9.25013e-06
7.681e-06
-1.07531e-05
7.67467e-06
-1.2254e-05
7.66602e-06
-1.37523e-05
7.65571e-06
-1.52476e-05
7.6438e-06
-1.67397e-05
7.63027e-06
-1.82279e-05
7.61507e-06
-1.9712e-05
7.59814e-06
-2.11916e-05
7.57943e-06
-2.26661e-05
7.55887e-06
-2.41352e-05
7.53639e-06
-2.55984e-05
7.51192e-06
-2.70553e-05
7.48539e-06
-2.85054e-05
7.45672e-06
-2.99482e-05
7.42582e-06
-3.13832e-05
7.39263e-06
-3.28099e-05
7.35705e-06
-3.42278e-05
7.319e-06
-3.56363e-05
7.27841e-06
-3.70349e-05
7.2352e-06
-3.8423e-05
7.1893e-06
-3.98e-05
7.14064e-06
-4.11654e-05
7.08917e-06
-4.25185e-05
7.03486e-06
-4.38587e-05
6.9777e-06
-4.51854e-05
6.9177e-06
-4.6498e-05
6.85491e-06
-4.77959e-05
6.78941e-06
-4.90785e-05
6.72137e-06
-5.03453e-05
6.65101e-06
-5.15956e-05
6.57863e-06
-5.28291e-05
6.50467e-06
-5.40453e-05
6.42969e-06
-5.52438e-05
6.35445e-06
-5.64244e-05
6.27994e-06
-5.7587e-05
6.20743e-06
-5.87316e-05
6.13858e-06
-5.98584e-05
6.07554e-06
-6.09678e-05
6.02106e-06
-6.20605e-05
5.97872e-06
-6.31374e-05
5.95319e-06
-6.41994e-05
5.9505e-06
-6.52477e-05
5.97857e-06
-6.62833e-05
6.04781e-06
-6.73061e-05
6.17189e-06
-6.83143e-05
6.36887e-06
-6.9302e-05
6.66257e-06
-7.02552e-05
7.08416e-06
-7.11439e-05
7.67368e-06
-7.19098e-05
8.48001e-06
-7.24458e-05
9.55851e-06
-7.25547e-05
1.09606e-05
-7.19326e-05
1.26756e-05
1.45441e-05
-7.03712e-05
-6.44481e-07
3.84651e-06
-1.84548e-06
7.25241e-06
-3.26105e-06
8.59365e-06
-4.7465e-06
9.04136e-06
-6.25074e-06
9.16439e-06
-7.75855e-06
9.18931e-06
-9.26591e-06
9.18836e-06
-1.07717e-05
9.18044e-06
-1.22753e-05
9.16968e-06
-1.37765e-05
9.15684e-06
-1.52747e-05
9.14201e-06
-1.67696e-05
9.12517e-06
-1.82608e-05
9.10626e-06
-1.97479e-05
9.08522e-06
-2.12304e-05
9.06198e-06
-2.2708e-05
9.03647e-06
-2.41802e-05
9.00861e-06
-2.56466e-05
8.97831e-06
-2.71067e-05
8.9455e-06
-2.85601e-05
8.91007e-06
-3.00062e-05
8.87195e-06
-3.14446e-05
8.83102e-06
-3.28747e-05
8.78719e-06
-3.42961e-05
8.74037e-06
-3.57082e-05
8.69046e-06
-3.71103e-05
8.63736e-06
-3.8502e-05
8.58099e-06
-3.98826e-05
8.52127e-06
-4.12516e-05
8.45814e-06
-4.26083e-05
8.39154e-06
-4.3952e-05
8.32145e-06
-4.52822e-05
8.24787e-06
-4.65982e-05
8.17085e-06
-4.78992e-05
8.09046e-06
-4.91847e-05
8.00687e-06
-5.0454e-05
7.92029e-06
-5.17064e-05
7.83104e-06
-5.29413e-05
7.73958e-06
-5.41581e-05
7.64649e-06
-5.53562e-05
7.55256e-06
-5.65351e-05
7.4588e-06
-5.76942e-05
7.36654e-06
-5.88331e-05
7.27747e-06
-5.99513e-05
7.19378e-06
-6.10485e-05
7.11822e-06
-6.21241e-05
7.05437e-06
-6.31777e-05
7.00673e-06
-6.42082e-05
6.98107e-06
-6.52144e-05
6.98476e-06
-6.61937e-05
7.02713e-06
-6.71419e-05
7.12005e-06
-6.80514e-05
7.27838e-06
-6.89094e-05
7.52061e-06
-6.96943e-05
7.86902e-06
-7.03699e-05
8.3493e-06
-7.08781e-05
8.98818e-06
-7.11279e-05
9.80834e-06
-7.09832e-05
1.08159e-05
-7.02753e-05
1.19676e-05
1.31432e-05
-6.88744e-05
-6.43762e-07
4.49027e-06
-1.84572e-06
8.45436e-06
-3.26304e-06
1.0011e-05
-4.75065e-06
1.0529e-05
-6.25711e-06
1.06709e-05
-7.76712e-06
1.06993e-05
-9.27666e-06
1.06979e-05
-1.07846e-05
1.06884e-05
-1.22904e-05
1.06755e-05
-1.37938e-05
1.06602e-05
-1.52943e-05
1.06425e-05
-1.67915e-05
1.06224e-05
-1.8285e-05
1.05998e-05
-1.97746e-05
1.05747e-05
-2.12596e-05
1.0547e-05
-2.27398e-05
1.05166e-05
-2.42147e-05
1.04835e-05
-2.56838e-05
1.04474e-05
-2.71467e-05
1.04084e-05
-2.8603e-05
1.03663e-05
-3.00521e-05
1.03211e-05
-3.14936e-05
1.02725e-05
-3.29269e-05
1.02205e-05
-3.43515e-05
1.0165e-05
-3.57669e-05
1.01059e-05
-3.71725e-05
1.0043e-05
-3.85677e-05
9.97619e-06
-3.99519e-05
9.90547e-06
-4.13245e-05
9.83071e-06
-4.26848e-05
9.75184e-06
-4.40322e-05
9.66881e-06
-4.53659e-05
9.5816e-06
-4.66853e-05
9.49024e-06
-4.79896e-05
9.3948e-06
-4.92782e-05
9.29541e-06
-5.05502e-05
9.19228e-06
-5.18048e-05
9.08571e-06
-5.30414e-05
8.97613e-06
-5.4259e-05
8.86412e-06
-5.54569e-05
8.75043e-06
-5.66341e-05
8.63607e-06
-5.77899e-05
8.52232e-06
-5.89232e-05
8.4108e-06
-6.00331e-05
8.3036e-06
-6.11182e-05
8.20333e-06
-6.21771e-05
8.11331e-06
-6.3208e-05
8.03766e-06
-6.42085e-05
7.98152e-06
-6.5175e-05
7.95129e-06
-6.61027e-05
7.95479e-06
-6.69842e-05
8.00154e-06
-6.78087e-05
8.10289e-06
-6.856e-05
8.27194e-06
-6.92141e-05
8.5231e-06
-6.97355e-05
8.87074e-06
-7.00737e-05
9.32633e-06
-7.01587e-05
9.89334e-06
-6.99006e-05
1.05578e-05
-6.92041e-05
1.12711e-05
1.19413e-05
-6.80022e-05
-6.43251e-07
5.13352e-06
-1.84607e-06
9.65719e-06
-3.26512e-06
1.143e-05
-4.75488e-06
1.20187e-05
-6.26361e-06
1.21796e-05
-7.77592e-06
1.22116e-05
-9.28776e-06
1.22097e-05
-1.0798e-05
1.21986e-05
-1.23062e-05
1.21837e-05
-1.3812e-05
1.21659e-05
-1.53149e-05
1.21454e-05
-1.68146e-05
1.21221e-05
-1.83107e-05
1.2096e-05
-1.98029e-05
1.20669e-05
-2.12907e-05
1.20348e-05
-2.27737e-05
1.19996e-05
-2.42515e-05
1.19613e-05
-2.57236e-05
1.19196e-05
-2.71896e-05
1.18745e-05
-2.86491e-05
1.18258e-05
-3.01016e-05
1.17735e-05
-3.15465e-05
1.17174e-05
-3.29834e-05
1.16574e-05
-3.44117e-05
1.15933e-05
-3.58309e-05
1.1525e-05
-3.72404e-05
1.14524e-05
-3.86395e-05
1.13754e-05
-4.00278e-05
1.12937e-05
-4.14045e-05
1.12074e-05
-4.2769e-05
1.11163e-05
-4.41205e-05
1.10203e-05
-4.54584e-05
1.09195e-05
-4.67818e-05
1.08137e-05
-4.80901e-05
1.07031e-05
-4.93824e-05
1.05877e-05
-5.06578e-05
1.04677e-05
-5.19154e-05
1.03433e-05
-5.31543e-05
1.0215e-05
-5.43735e-05
1.00833e-05
-5.55719e-05
9.94887e-06
-5.67485e-05
9.8126e-06
-5.79018e-05
9.67568e-06
-5.90306e-05
9.53958e-06
-6.01332e-05
9.4062e-06
-6.12078e-05
9.27786e-06
-6.22519e-05
9.15747e-06
-6.32628e-05
9.04857e-06
-6.42368e-05
8.95549e-06
-6.51689e-05
8.88343e-06
-6.60527e-05
8.83852e-06
-6.6879e-05
8.82789e-06
-6.76356e-05
8.85949e-06
-6.83054e-05
8.94176e-06
-6.88651e-05
9.08279e-06
-6.92833e-05
9.28888e-06
-6.95188e-05
9.56185e-06
-6.95206e-05
9.89511e-06
-6.92302e-05
1.02674e-05
-6.85939e-05
1.06348e-05
1.09285e-05
-6.75811e-05
-6.42863e-07
5.77638e-06
-1.84668e-06
1.0861e-05
-3.26765e-06
1.2851e-05
-4.75978e-06
1.35108e-05
-6.27103e-06
1.36908e-05
-7.78591e-06
1.37265e-05
-9.30035e-06
1.37242e-05
-1.08132e-05
1.37115e-05
-1.23241e-05
1.36946e-05
-1.38326e-05
1.36744e-05
-1.53383e-05
1.36511e-05
-1.68409e-05
1.36247e-05
-1.83399e-05
1.3595e-05
-1.98351e-05
1.35621e-05
-2.1326e-05
1.35257e-05
-2.28122e-05
1.34858e-05
-2.42933e-05
1.34424e-05
-2.57689e-05
1.33951e-05
-2.72385e-05
1.33441e-05
-2.87016e-05
1.3289e-05
-3.01579e-05
1.32298e-05
-3.16067e-05
1.31663e-05
-3.30477e-05
1.30983e-05
-3.44802e-05
1.30258e-05
-3.59037e-05
1.29485e-05
-3.73176e-05
1.28664e-05
-3.87214e-05
1.27791e-05
-4.01143e-05
1.26867e-05
-4.14958e-05
1.25889e-05
-4.28651e-05
1.24856e-05
-4.42215e-05
1.23768e-05
-4.55643e-05
1.22622e-05
-4.68926e-05
1.2142e-05
-4.82056e-05
1.20161e-05
-4.95024e-05
1.18845e-05
-5.07821e-05
1.17473e-05
-5.20436e-05
1.16048e-05
-5.32859e-05
1.14573e-05
-5.45077e-05
1.13052e-05
-5.57079e-05
1.1149e-05
-5.68849e-05
1.09897e-05
-5.80373e-05
1.0828e-05
-5.91632e-05
1.06655e-05
-6.02605e-05
1.05035e-05
-6.13268e-05
1.03442e-05
-6.23592e-05
1.01898e-05
-6.33539e-05
1.00433e-05
-6.43065e-05
9.90808e-06
-6.52111e-05
9.78806e-06
-6.60604e-05
9.68774e-06
-6.68444e-05
9.61199e-06
-6.75508e-05
9.56583e-06
-6.8163e-05
9.55395e-06
-6.866e-05
9.57979e-06
-6.90153e-05
9.64425e-06
-6.91971e-05
9.74358e-06
-6.91686e-05
9.86661e-06
-6.88923e-05
9.99111e-06
-6.83381e-05
1.00806e-05
1.00839e-05
-6.74934e-05
-6.42529e-07
6.41891e-06
-1.84749e-06
1.2066e-05
-3.27065e-06
1.42742e-05
-4.76542e-06
1.50056e-05
-6.27949e-06
1.52049e-05
-7.79725e-06
1.52443e-05
-9.31462e-06
1.52416e-05
-1.08305e-05
1.52274e-05
-1.23444e-05
1.52085e-05
-1.38559e-05
1.51859e-05
-1.53648e-05
1.516e-05
-1.68706e-05
1.51305e-05
-1.83729e-05
1.50974e-05
-1.98715e-05
1.50606e-05
-2.13659e-05
1.50201e-05
-2.28557e-05
1.49757e-05
-2.43406e-05
1.49272e-05
-2.582e-05
1.48746e-05
-2.72936e-05
1.48177e-05
-2.87609e-05
1.47563e-05
-3.02214e-05
1.46903e-05
-3.16747e-05
1.46196e-05
-3.31203e-05
1.45439e-05
-3.45575e-05
1.44631e-05
-3.59859e-05
1.4377e-05
-3.74049e-05
1.42854e-05
-3.88139e-05
1.41881e-05
-4.02121e-05
1.4085e-05
-4.15991e-05
1.39758e-05
-4.2974e-05
1.38605e-05
-4.4336e-05
1.37388e-05
-4.56845e-05
1.36107e-05
-4.70185e-05
1.3476e-05
-4.83371e-05
1.33347e-05
-4.96395e-05
1.31868e-05
-5.09244e-05
1.30323e-05
-5.21909e-05
1.28713e-05
-5.34377e-05
1.27041e-05
-5.46635e-05
1.2531e-05
-5.58668e-05
1.23523e-05
-5.7046e-05
1.21688e-05
-5.81991e-05
1.19812e-05
-5.93242e-05
1.17906e-05
-6.04188e-05
1.15981e-05
-6.148e-05
1.14053e-05
-6.25042e-05
1.12141e-05
-6.34875e-05
1.10266e-05
-6.44247e-05
1.08453e-05
-6.53096e-05
1.06729e-05
-6.61342e-05
1.05124e-05
-6.6889e-05
1.03668e-05
-6.75618e-05
1.02386e-05
-6.81375e-05
1.01297e-05
-6.85981e-05
1.00404e-05
-6.89219e-05
9.96804e-06
-6.90844e-05
9.90612e-06
-6.90598e-05
9.84201e-06
-6.8824e-05
9.75529e-06
-6.83598e-05
9.6164e-06
9.38736e-06
-6.76633e-05
-6.42208e-07
7.06112e-06
-1.84847e-06
1.32722e-05
-3.27407e-06
1.56998e-05
-4.77179e-06
1.65033e-05
-6.28898e-06
1.67221e-05
-7.80994e-06
1.67652e-05
-9.33055e-06
1.67622e-05
-1.08497e-05
1.67466e-05
-1.2367e-05
1.67257e-05
-1.38819e-05
1.67009e-05
-1.53943e-05
1.66723e-05
-1.69037e-05
1.66398e-05
-1.84097e-05
1.66034e-05
-1.99121e-05
1.6563e-05
-2.14104e-05
1.65184e-05
-2.29042e-05
1.64695e-05
-2.43932e-05
1.64162e-05
-2.5877e-05
1.63583e-05
-2.7355e-05
1.62957e-05
-2.88269e-05
1.62282e-05
-3.02922e-05
1.61556e-05
-3.17505e-05
1.60778e-05
-3.32011e-05
1.59945e-05
-3.46437e-05
1.59056e-05
-3.60776e-05
1.58108e-05
-3.75022e-05
1.571e-05
-3.8917e-05
1.56029e-05
-4.03213e-05
1.54893e-05
-4.17144e-05
1.53689e-05
-4.30956e-05
1.52417e-05
-4.44641e-05
1.51073e-05
-4.58191e-05
1.49657e-05
-4.71597e-05
1.48166e-05
-4.8485e-05
1.466e-05
-4.97938e-05
1.44957e-05
-5.10852e-05
1.43237e-05
-5.23579e-05
1.4144e-05
-5.36106e-05
1.39568e-05
-5.48418e-05
1.37622e-05
-5.60499e-05
1.35604e-05
-5.7233e-05
1.3352e-05
-5.83892e-05
1.31374e-05
-5.9516e-05
1.29174e-05
-6.06107e-05
1.26928e-05
-6.16702e-05
1.24648e-05
-6.26907e-05
1.22346e-05
-6.36677e-05
1.20036e-05
-6.45959e-05
1.17735e-05
-6.54689e-05
1.15459e-05
-6.62789e-05
1.13225e-05
-6.70167e-05
1.11045e-05
-6.76709e-05
1.08928e-05
-6.82284e-05
1.06872e-05
-6.86738e-05
1.04857e-05
-6.89896e-05
1.02839e-05
-6.91575e-05
1.0074e-05
-6.91591e-05
9.84354e-06
-6.89784e-05
9.57467e-06
-6.86059e-05
9.24382e-06
8.82267e-06
-6.80412e-05
-6.41877e-07
7.703e-06
-1.8496e-06
1.44799e-05
-3.27789e-06
1.7128e-05
-4.77885e-06
1.80043e-05
-6.29946e-06
1.82427e-05
-7.82393e-06
1.82897e-05
-9.34811e-06
1.82863e-05
-1.08709e-05
1.82694e-05
-1.23918e-05
1.82467e-05
-1.39106e-05
1.82196e-05
-1.54268e-05
1.81885e-05
-1.69401e-05
1.81532e-05
-1.84502e-05
1.81136e-05
-1.99567e-05
1.80695e-05
-2.14593e-05
1.8021e-05
-2.29576e-05
1.79678e-05
-2.44511e-05
1.79098e-05
-2.59396e-05
1.78468e-05
-2.74225e-05
1.77786e-05
-2.88995e-05
1.77052e-05
-3.03701e-05
1.76262e-05
-3.18338e-05
1.75415e-05
-3.32901e-05
1.74509e-05
-3.47385e-05
1.7354e-05
-3.61785e-05
1.72508e-05
-3.76094e-05
1.71409e-05
-3.90307e-05
1.70242e-05
-4.04417e-05
1.69003e-05
-4.18417e-05
1.67689e-05
-4.323e-05
1.663e-05
-4.46058e-05
1.64831e-05
-4.59682e-05
1.63281e-05
-4.73163e-05
1.61648e-05
-4.86492e-05
1.59929e-05
-4.99658e-05
1.58122e-05
-5.12648e-05
1.56227e-05
-5.2545e-05
1.54243e-05
-5.3805e-05
1.52168e-05
-5.50433e-05
1.50004e-05
-5.6258e-05
1.47751e-05
-5.74472e-05
1.45412e-05
-5.86088e-05
1.42989e-05
-5.974e-05
1.40487e-05
-6.08382e-05
1.37909e-05
-6.18998e-05
1.35264e-05
-6.29209e-05
1.32557e-05
-6.38971e-05
1.29797e-05
-6.48228e-05
1.26992e-05
-6.56918e-05
1.24149e-05
-6.64967e-05
1.21273e-05
-6.72286e-05
1.18365e-05
-6.78776e-05
1.15418e-05
-6.8432e-05
1.12417e-05
-6.88791e-05
1.09328e-05
-6.92051e-05
1.06098e-05
-6.93957e-05
1.02646e-05
-6.94378e-05
9.88563e-06
-6.93208e-05
9.45769e-06
-6.90389e-05
8.962e-06
8.37721e-06
-6.85935e-05
-6.41524e-07
8.34452e-06
-1.85083e-06
1.56893e-05
-3.28207e-06
1.85593e-05
-4.78655e-06
1.95088e-05
-6.3109e-06
1.97671e-05
-7.83917e-06
1.98179e-05
-9.36723e-06
1.98144e-05
-1.0894e-05
1.97961e-05
-1.24189e-05
1.97716e-05
-1.39417e-05
1.97425e-05
-1.54621e-05
1.97089e-05
-1.69797e-05
1.96708e-05
-1.84942e-05
1.96281e-05
-2.00053e-05
1.95806e-05
-2.15126e-05
1.95282e-05
-2.30156e-05
1.94709e-05
-2.45142e-05
1.94083e-05
-2.60078e-05
1.93404e-05
-2.74961e-05
1.92669e-05
-2.89786e-05
1.91877e-05
-3.04549e-05
1.91025e-05
-3.19245e-05
1.90111e-05
-3.3387e-05
1.89133e-05
-3.48418e-05
1.88088e-05
-3.62884e-05
1.86974e-05
-3.77262e-05
1.85788e-05
-3.91547e-05
1.84526e-05
-4.05731e-05
1.83187e-05
-4.19807e-05
1.81766e-05
-4.33769e-05
1.80262e-05
-4.47608e-05
1.7867e-05
-4.61316e-05
1.76989e-05
-4.74883e-05
1.75214e-05
-4.88298e-05
1.73344e-05
-5.01552e-05
1.71376e-05
-5.14632e-05
1.69307e-05
-5.27524e-05
1.67134e-05
-5.40213e-05
1.64858e-05
-5.52684e-05
1.62475e-05
-5.64917e-05
1.59985e-05
-5.76893e-05
1.57388e-05
-5.88587e-05
1.54684e-05
-5.99974e-05
1.51873e-05
-6.11023e-05
1.48959e-05
-6.217e-05
1.45941e-05
-6.31965e-05
1.42822e-05
-6.41772e-05
1.39605e-05
-6.51069e-05
1.36289e-05
-6.59794e-05
1.32874e-05
-6.67878e-05
1.29357e-05
-6.7524e-05
1.25727e-05
-6.81792e-05
1.2197e-05
-6.87433e-05
1.18058e-05
-6.92057e-05
1.13952e-05
-6.95552e-05
1.09594e-05
-6.9781e-05
1.04904e-05
-6.98734e-05
9.97802e-06
-6.98251e-05
9.40931e-06
-6.96323e-05
8.76927e-06
8.04155e-06
-6.92967e-05
-6.41137e-07
8.98566e-06
-1.85216e-06
1.69003e-05
-3.28658e-06
1.99937e-05
-4.79486e-06
2.1017e-05
-6.32323e-06
2.12954e-05
-7.85562e-06
2.13503e-05
-9.38786e-06
2.13466e-05
-1.09188e-05
2.13271e-05
-1.24481e-05
2.13009e-05
-1.39754e-05
2.12697e-05
-1.55003e-05
2.12338e-05
-1.70225e-05
2.1193e-05
-1.85418e-05
2.11473e-05
-2.00577e-05
2.10965e-05
-2.157e-05
2.10405e-05
-2.30783e-05
2.09791e-05
-2.45822e-05
2.09122e-05
-2.60813e-05
2.08395e-05
-2.75753e-05
2.07609e-05
-2.90638e-05
2.06762e-05
-3.05463e-05
2.0585e-05
-3.20224e-05
2.04872e-05
-3.34915e-05
2.03825e-05
-3.49533e-05
2.02706e-05
-3.64071e-05
2.01512e-05
-3.78524e-05
2.00241e-05
-3.92887e-05
1.98888e-05
-4.07152e-05
1.97451e-05
-4.21312e-05
1.95927e-05
-4.35361e-05
1.9431e-05
-4.4929e-05
1.92599e-05
-4.63091e-05
1.90789e-05
-4.76753e-05
1.88877e-05
-4.90267e-05
1.86858e-05
-5.03622e-05
1.8473e-05
-5.16804e-05
1.82489e-05
-5.298e-05
1.80131e-05
-5.42596e-05
1.77653e-05
-5.55173e-05
1.75052e-05
-5.67513e-05
1.72325e-05
-5.79595e-05
1.6947e-05
-5.91396e-05
1.66484e-05
-6.02887e-05
1.63365e-05
-6.14039e-05
1.6011e-05
-6.24817e-05
1.56719e-05
-6.35181e-05
1.53187e-05
-6.45088e-05
1.49511e-05
-6.54485e-05
1.45686e-05
-6.63315e-05
1.41705e-05
-6.71514e-05
1.37555e-05
-6.79009e-05
1.33222e-05
-6.85721e-05
1.28681e-05
-6.91564e-05
1.23901e-05
-6.96449e-05
1.18837e-05
-7.00285e-05
1.1343e-05
-7.02988e-05
1.07607e-05
-7.04483e-05
1.01275e-05
-7.04717e-05
9.43269e-06
-7.03664e-05
8.66404e-06
7.80883e-06
-7.01337e-05
-6.40707e-07
9.62637e-06
-1.85355e-06
1.81131e-05
-3.29138e-06
2.14315e-05
-4.80373e-06
2.25294e-05
-6.33641e-06
2.28281e-05
-7.87321e-06
2.28871e-05
-9.40992e-06
2.28834e-05
-1.09455e-05
2.28626e-05
-1.24794e-05
2.28348e-05
-1.40113e-05
2.28017e-05
-1.55411e-05
2.27635e-05
-1.70682e-05
2.27202e-05
-1.85926e-05
2.26717e-05
-2.01137e-05
2.26177e-05
-2.16314e-05
2.25582e-05
-2.31453e-05
2.2493e-05
-2.46549e-05
2.24219e-05
-2.616e-05
2.23446e-05
-2.76602e-05
2.22611e-05
-2.9155e-05
2.2171e-05
-3.06442e-05
2.20741e-05
-3.21272e-05
2.19702e-05
-3.36035e-05
2.18588e-05
-3.50727e-05
2.17398e-05
-3.65344e-05
2.16129e-05
-3.79878e-05
2.14775e-05
-3.94325e-05
2.13335e-05
-4.08677e-05
2.11804e-05
-4.22929e-05
2.10179e-05
-4.37073e-05
2.08454e-05
-4.51101e-05
2.06627e-05
-4.65004e-05
2.04692e-05
-4.78772e-05
2.02645e-05
-4.92396e-05
2.00482e-05
-5.05863e-05
1.98198e-05
-5.19162e-05
1.95788e-05
-5.32279e-05
1.93247e-05
-5.45197e-05
1.90571e-05
-5.579e-05
1.87755e-05
-5.70368e-05
1.84794e-05
-5.82581e-05
1.81683e-05
-5.94515e-05
1.78417e-05
-6.06141e-05
1.74991e-05
-6.17431e-05
1.714e-05
-6.28349e-05
1.67637e-05
-6.38858e-05
1.63696e-05
-6.48915e-05
1.59567e-05
-6.5847e-05
1.55241e-05
-6.67471e-05
1.50705e-05
-6.75856e-05
1.45941e-05
-6.83563e-05
1.40928e-05
-6.90519e-05
1.35638e-05
-6.96652e-05
1.30034e-05
-7.01886e-05
1.2407e-05
-7.06146e-05
1.1769e-05
-7.09364e-05
1.10824e-05
-7.1148e-05
1.03392e-05
-7.12454e-05
9.53007e-06
-7.12265e-05
8.64513e-06
7.67424e-06
-7.10919e-05
-6.40228e-07
1.02666e-05
-1.855e-06
1.93279e-05
-3.29644e-06
2.2873e-05
-4.81313e-06
2.40461e-05
-6.35039e-06
2.43654e-05
-7.89188e-06
2.44286e-05
-9.43335e-06
2.44248e-05
-1.09737e-05
2.4403e-05
-1.25125e-05
2.43736e-05
-1.40495e-05
2.43387e-05
-1.55844e-05
2.42984e-05
-1.71168e-05
2.42527e-05
-1.86466e-05
2.42014e-05
-2.01733e-05
2.41444e-05
-2.16967e-05
2.40816e-05
-2.32164e-05
2.40127e-05
-2.47322e-05
2.39376e-05
-2.62436e-05
2.38561e-05
-2.77503e-05
2.37678e-05
-2.9252e-05
2.36727e-05
-3.07482e-05
2.35703e-05
-3.22386e-05
2.34605e-05
-3.37226e-05
2.33429e-05
-3.51998e-05
2.32171e-05
-3.66698e-05
2.30828e-05
-3.81319e-05
2.29397e-05
-3.95857e-05
2.27873e-05
-4.10304e-05
2.26252e-05
-4.24655e-05
2.24529e-05
-4.38902e-05
2.22701e-05
-4.53037e-05
2.20762e-05
-4.67052e-05
2.18707e-05
-4.80936e-05
2.1653e-05
-4.94681e-05
2.14227e-05
-5.08275e-05
2.11791e-05
-5.21704e-05
2.09217e-05
-5.34956e-05
2.06499e-05
-5.48014e-05
2.03629e-05
-5.60862e-05
2.00603e-05
-5.7348e-05
1.97412e-05
-5.85848e-05
1.94051e-05
-5.97941e-05
1.9051e-05
-6.09734e-05
1.86784e-05
-6.21195e-05
1.82862e-05
-6.32293e-05
1.78735e-05
-6.4299e-05
1.74393e-05
-6.53245e-05
1.69822e-05
-6.63012e-05
1.65009e-05
-6.72242e-05
1.59935e-05
-6.8088e-05
1.54579e-05
-6.88868e-05
1.48916e-05
-6.96142e-05
1.42912e-05
-7.02639e-05
1.36531e-05
-7.08294e-05
1.29726e-05
-7.13045e-05
1.22441e-05
-7.16833e-05
1.14613e-05
-7.19612e-05
1.0617e-05
-7.21344e-05
9.70333e-06
-7.22012e-05
8.71194e-06
7.6346e-06
-7.21616e-05
-6.39689e-07
1.09063e-05
-1.85648e-06
2.05447e-05
-3.30174e-06
2.43182e-05
-4.82302e-06
2.55674e-05
-6.36512e-06
2.59075e-05
-7.91156e-06
2.59751e-05
-9.45807e-06
2.59713e-05
-1.10035e-05
2.59484e-05
-1.25476e-05
2.59176e-05
-1.40899e-05
2.5881e-05
-1.56302e-05
2.58387e-05
-1.71682e-05
2.57907e-05
-1.87036e-05
2.57368e-05
-2.02362e-05
2.5677e-05
-2.17656e-05
2.5611e-05
-2.32916e-05
2.55387e-05
-2.48138e-05
2.54598e-05
-2.63319e-05
2.53742e-05
-2.78456e-05
2.52815e-05
-2.93545e-05
2.51816e-05
-3.08582e-05
2.5074e-05
-3.23563e-05
2.49586e-05
-3.38485e-05
2.4835e-05
-3.53342e-05
2.47028e-05
-3.6813e-05
2.45616e-05
-3.82844e-05
2.44111e-05
-3.97479e-05
2.42507e-05
-4.12028e-05
2.40801e-05
-4.26485e-05
2.38986e-05
-4.40842e-05
2.37059e-05
-4.55093e-05
2.35013e-05
-4.69229e-05
2.32843e-05
-4.83241e-05
2.30542e-05
-4.97118e-05
2.28104e-05
-5.1085e-05
2.25523e-05
-5.24424e-05
2.22791e-05
-5.37826e-05
2.19901e-05
-5.51042e-05
2.16845e-05
-5.64054e-05
2.13615e-05
-5.76844e-05
2.10202e-05
-5.8939e-05
2.06597e-05
-6.0167e-05
2.02791e-05
-6.13658e-05
1.98772e-05
-6.25325e-05
1.94529e-05
-6.36639e-05
1.90049e-05
-6.47565e-05
1.85319e-05
-6.58064e-05
1.80321e-05
-6.68094e-05
1.75039e-05
-6.77608e-05
1.69449e-05
-6.86556e-05
1.63527e-05
-6.94886e-05
1.57245e-05
-7.02541e-05
1.50568e-05
-7.09466e-05
1.43456e-05
-7.15604e-05
1.35864e-05
-7.20901e-05
1.27738e-05
-7.25308e-05
1.19019e-05
-7.28782e-05
1.09644e-05
-7.31291e-05
9.95426e-06
-7.32816e-05
8.86446e-06
7.68812e-06
-7.33351e-05
-6.39082e-07
1.15454e-05
-1.85798e-06
2.17636e-05
-3.30724e-06
2.57675e-05
-4.83334e-06
2.70935e-05
-6.38054e-06
2.74547e-05
-7.9322e-06
2.75267e-05
-9.48399e-06
2.75231e-05
-1.10348e-05
2.74993e-05
-1.25843e-05
2.74671e-05
-1.41322e-05
2.74288e-05
-1.56782e-05
2.73847e-05
-1.72221e-05
2.73345e-05
-1.87635e-05
2.72783e-05
-2.03022e-05
2.72157e-05
-2.1838e-05
2.71468e-05
-2.33705e-05
2.70712e-05
-2.48995e-05
2.69888e-05
-2.64247e-05
2.68993e-05
-2.79456e-05
2.68025e-05
-2.94621e-05
2.6698e-05
-3.09737e-05
2.65856e-05
-3.248e-05
2.6465e-05
-3.39808e-05
2.63358e-05
-3.54755e-05
2.61975e-05
-3.69637e-05
2.60498e-05
-3.84449e-05
2.58923e-05
-3.99187e-05
2.57245e-05
-4.13844e-05
2.55457e-05
-4.28413e-05
2.53556e-05
-4.4289e-05
2.51535e-05
-4.57265e-05
2.49389e-05
-4.71532e-05
2.47109e-05
-4.85681e-05
2.44691e-05
-4.99702e-05
2.42125e-05
-5.13584e-05
2.39406e-05
-5.27316e-05
2.36523e-05
-5.40885e-05
2.33469e-05
-5.54275e-05
2.30235e-05
-5.67469e-05
2.2681e-05
-5.80451e-05
2.23184e-05
-5.932e-05
2.19346e-05
-6.05693e-05
2.15283e-05
-6.17905e-05
2.10984e-05
-6.29809e-05
2.06433e-05
-6.41375e-05
2.01615e-05
-6.52569e-05
1.96513e-05
-6.63355e-05
1.91107e-05
-6.73692e-05
1.85376e-05
-6.8354e-05
1.79296e-05
-6.92851e-05
1.72839e-05
-7.01578e-05
1.65972e-05
-7.09671e-05
1.58661e-05
-7.17079e-05
1.50865e-05
-7.23754e-05
1.42538e-05
-7.29645e-05
1.33629e-05
-7.3471e-05
1.24085e-05
-7.38911e-05
1.13845e-05
-7.42216e-05
1.02848e-05
-7.44605e-05
9.10332e-06
7.83413e-06
-7.46065e-05
-6.384e-07
1.21838e-05
-1.85946e-06
2.29846e-05
-3.31291e-06
2.7221e-05
-4.84405e-06
2.86246e-05
-6.3966e-06
2.90072e-05
-7.95371e-06
2.90838e-05
-9.51105e-06
2.90805e-05
-1.10675e-05
2.90558e-05
-1.26228e-05
2.90224e-05
-1.41765e-05
2.89826e-05
-1.57284e-05
2.89366e-05
-1.72784e-05
2.88844e-05
-1.8826e-05
2.88259e-05
-2.03712e-05
2.87609e-05
-2.19136e-05
2.86892e-05
-2.3453e-05
2.86106e-05
-2.49891e-05
2.85249e-05
-2.65216e-05
2.84318e-05
-2.80502e-05
2.83311e-05
-2.95746e-05
2.82224e-05
-3.10944e-05
2.81055e-05
-3.26094e-05
2.798e-05
-3.41192e-05
2.78455e-05
-3.56233e-05
2.77016e-05
-3.71214e-05
2.75479e-05
-3.8613e-05
2.73839e-05
-4.00976e-05
2.7209e-05
-4.15746e-05
2.70228e-05
-4.30436e-05
2.68246e-05
-4.45039e-05
2.66138e-05
-4.59547e-05
2.63897e-05
-4.73953e-05
2.61515e-05
-4.88248e-05
2.58986e-05
-5.02424e-05
2.56301e-05
-5.16469e-05
2.53451e-05
-5.30373e-05
2.50427e-05
-5.44122e-05
2.47218e-05
-5.57703e-05
2.43815e-05
-5.71099e-05
2.40206e-05
-5.84293e-05
2.36378e-05
-5.97266e-05
2.32319e-05
-6.09996e-05
2.28014e-05
-6.22461e-05