/*--------------------------------*- C++ -*----------------------------------*\
  =========                 |
  \\      /  F ield         | OpenFOAM: The Open Source CFD Toolbox
   \\    /   O peration     | Website:  https://openfoam.org
    \\  /    A nd           | Version:  8
     \\/     M anipulation  |
\*---------------------------------------------------------------------------*/
FoamFile
{
    version     2.0;
    format      ascii;
    class       surfaceScalarField;
    location    "51";
    object      phi;
}
// * * * * * * * * * * * * * * * * * * * * * * * * * * * * * * * * * * * * * //

dimensions      [0 3 -1 0 0 0 0];

internalField   nonuniform List<scalar> 
208
(
1.90869e-05
-1.90869e-05
3.33817e-05
-1.42948e-05
3.37796e-05
-3.97889e-07
1.04366e-05
2.3343e-05
-6.90324e-05
7.9469e-05
7.37865e-05
-0.000142819
2.27002e-06
-2.13569e-05
-1.2209e-05
1.84182e-07
-5.47373e-05
4.21305e-05
-0.000108826
7.74313e-05
-0.000137732
0.000108376
7.34033e-05
-0.000137349
-1.70202e-05
-4.33666e-06
-4.6985e-05
3.01489e-05
-8.03436e-05
7.54891e-05
-0.000107604
0.000104692
-0.000113863
0.000114635
5.68133e-05
-9.72734e-05
-2.19783e-05
1.76416e-05
-4.58799e-05
5.40505e-05
-6.9267e-05
9.88761e-05
-8.07463e-05
0.000116171
-7.18018e-05
0.00010569
3.6237e-05
-5.12256e-05
-1.56184e-05
3.326e-05
-3.45346e-05
7.29668e-05
-4.59143e-05
0.000110256
-4.51761e-05
0.000115433
-3.38802e-05
9.43946e-05
3.03913e-05
-2.80345e-05
-6.92883e-06
4.01889e-05
-1.00279e-05
7.60659e-05
-8.90049e-06
0.000109128
-6.4633e-06
0.000112996
-1.64162e-06
8.95729e-05
3.52448e-05
-6.49514e-06
2.23301e-06
3.79559e-05
3.24038e-06
7.50585e-05
1.14228e-05
0.000100946
2.41006e-05
0.000100318
3.69004e-05
7.67731e-05
3.72794e-05
3.48658e-05
1.03502e-05
2.76057e-05
2.62306e-05
5.91781e-05
5.21106e-05
7.50659e-05
7.15268e-05
8.09018e-05
8.61504e-05
6.21495e-05
4.01312e-05
8.32985e-05
-3.72432e-05
6.48489e-05
-1.57199e-05
3.76549e-05
1.54512e-05
4.38948e-05
5.10076e-05
4.53454e-05
7.77168e-05
3.54403e-05
2.65059e-05
9.13422e-05
6.48489e-05
0.000102504
0.000146398
0.000191744
0.000227184
0.00025369
-0.000117072
9.84986e-05
-0.000124245
-6.83902e-05
-5.04968e-05
1.81466e-06
-2.04696e-05
-3.87629e-05
-9.15773e-06
-0.000152058
0.000131588
-0.000112263
7.34129e-05
-9.74047e-05
-6.53556e-05
-4.19907e-05
-9.41769e-05
-0.000194048
-6.61187e-05
4.22582e-05
-6.45728e-05
-6.69015e-05
-3.84021e-05
-0.000120348
-0.000232451
-2.74309e-05
1.84636e-05
-2.76107e-05
-6.67217e-05
-1.98446e-05
-0.000128114
-0.000252295
-1.34876e-05
3.91673e-06
-1.65503e-05
-6.3659e-05
-1.52295e-05
-0.000129434
-0.000267525
6.93446e-06
-9.51287e-06
2.71165e-06
-5.94362e-05
-3.79514e-06
-0.000122928
-0.00027132
3.55798e-05
-1.02269e-05
1.53286e-05
-3.91849e-05
1.76591e-06
-0.000109365
-0.000269554
7.08609e-05
2.21077e-06
4.27208e-05
-1.10448e-05
2.74074e-05
-9.40516e-05
-0.000242146
8.75553e-05
5.99764e-06
8.46805e-05
-8.17006e-06
6.92587e-05
-7.86298e-05
-0.000172888
0.000259688
0.000251518
0.000172888
-3.96571e-05
3.96571e-05
-6.46167e-05
2.49595e-05
-6.02932e-05
-4.32349e-06
-6.02932e-05
-3.41118e-05
7.37689e-05
-4.29155e-05
3.37633e-05
-4.42632e-05
-2.97579e-06
-0.000104556
-2.19089e-05
9.56778e-05
-9.36748e-06
2.12219e-05
-2.38287e-05
1.14854e-05
-0.000128385
-2.85672e-05
-5.53072e-06
-3.20305e-06
)
;

boundaryField
{
    movingWall
    {
        type            calculated;
        value           uniform 0;
    }
    fixedWalls
    {
        type            calculated;
        value           uniform 0;
    }
    frontAndBack
    {
        type            empty;
        value           nonuniform List<scalar> 0();
    }
}


// ************************************************************************* //
