/*--------------------------------*- C++ -*----------------------------------*\
  =========                 |
  \\      /  F ield         | OpenFOAM: The Open Source CFD Toolbox
   \\    /   O peration     | Website:  https://openfoam.org
    \\  /    A nd           | Version:  8
     \\/     M anipulation  |
\*---------------------------------------------------------------------------*/
FoamFile
{
    version     2.0;
    format      ascii;
    class       surfaceScalarField;
    location    "1.64";
    object      phi;
}
// * * * * * * * * * * * * * * * * * * * * * * * * * * * * * * * * * * * * * //

dimensions      [0 3 -1 0 0 0 0];

internalField   nonuniform List<scalar> 
760
(
1.2496e-06
-4.66574e-21
1.2496e-06
-1.21963e-21
1.2496e-06
5.04752e-22
1.2496e-06
8.9066e-22
1.2496e-06
4.43686e-22
1.2496e-06
-1.45385e-22
1.2496e-06
-3.44587e-22
1.2496e-06
-7.32006e-22
1.2496e-06
-5.83102e-22
1.2496e-06
-7.19952e-22
1.2496e-06
-8.34423e-22
1.2496e-06
-8.98482e-22
1.2496e-06
-8.55778e-22
1.2496e-06
-1.00079e-21
1.2496e-06
-9.32169e-22
1.2496e-06
-5.22747e-22
1.2496e-06
2.24716e-23
1.2496e-06
3.80884e-22
1.2496e-06
-5.83761e-23
-1.06293e-21
3.74883e-06
2.22598e-21
3.74883e-06
2.38242e-21
3.74883e-06
2.8931e-21
3.74883e-06
2.38615e-21
3.74883e-06
7.84058e-22
3.74883e-06
-1.18465e-21
3.74883e-06
-2.14793e-21
3.74883e-06
-2.69924e-21
3.74883e-06
-3.7998e-21
3.74883e-06
-3.87705e-21
3.74883e-06
-4.16145e-21
3.74883e-06
-4.57233e-21
3.74883e-06
-3.99857e-21
3.74883e-06
-2.93866e-21
3.74883e-06
-2.34535e-21
3.74883e-06
-8.48992e-22
3.74883e-06
1.50201e-21
3.74883e-06
2.13197e-21
3.74883e-06
2.86606e-21
2.2923e-21
6.24807e-06
9.17552e-21
6.24807e-06
7.6451e-21
6.24807e-06
6.6397e-21
6.24807e-06
4.18737e-21
6.24807e-06
1.10989e-21
6.24807e-06
-2.92894e-21
6.24807e-06
-6.09901e-21
6.24807e-06
-9.08923e-21
6.24807e-06
-1.01198e-20
6.24807e-06
-1.0834e-20
6.24807e-06
-9.63257e-21
6.24807e-06
-9.05764e-21
6.24807e-06
-8.28778e-21
6.24807e-06
-6.20268e-21
6.24807e-06
-2.73166e-21
6.24807e-06
8.87739e-22
6.24807e-06
5.08962e-21
6.24807e-06
7.71692e-21
6.24807e-06
9.5747e-21
1.09018e-20
8.74737e-06
1.7913e-20
8.74737e-06
1.49668e-20
8.74737e-06
1.10808e-20
8.74737e-06
6.05604e-21
8.74737e-06
-1.46564e-21
8.74737e-06
-7.21448e-21
8.74737e-06
-1.3483e-20
8.74737e-06
-1.59441e-20
8.74737e-06
-1.70177e-20
8.74737e-06
-1.81036e-20
8.74737e-06
-1.88402e-20
8.74737e-06
-1.7509e-20
8.74737e-06
-1.36122e-20
8.74737e-06
-7.92731e-21
8.74737e-06
-1.65469e-21
8.74737e-06
4.22563e-21
8.74737e-06
1.14918e-20
8.74737e-06
1.69036e-20
8.74737e-06
1.99662e-20
1.93555e-20
1.12467e-05
2.62789e-20
1.12467e-05
2.16563e-20
1.12467e-05
1.4659e-20
1.12467e-05
4.96165e-21
1.12467e-05
-4.87099e-21
1.12467e-05
-1.4148e-20
1.12467e-05
-1.97911e-20
1.12467e-05
-2.5829e-20
1.12467e-05
-2.79531e-20
1.12467e-05
-2.86322e-20
1.12467e-05
-2.69702e-20
1.12467e-05
-2.4799e-20
1.12467e-05
-1.75534e-20
1.12467e-05
-7.76057e-21
1.12467e-05
2.35514e-21
1.12467e-05
1.30524e-20
1.12467e-05
2.01331e-20
1.12467e-05
2.628e-20
1.12467e-05
2.89137e-20
2.88226e-20
1.37462e-05
3.04478e-20
1.37462e-05
2.6093e-20
1.37462e-05
1.58892e-20
1.37462e-05
4.32272e-21
1.37462e-05
-8.42028e-21
1.37462e-05
-2.02125e-20
1.37462e-05
-2.9882e-20
1.37462e-05
-3.39171e-20
1.37462e-05
-3.67232e-20
1.37462e-05
-3.5543e-20
1.37462e-05
-3.36677e-20
1.37462e-05
-2.89259e-20
1.37462e-05
-1.83255e-20
1.37462e-05
-6.4932e-21
1.37462e-05
6.99043e-21
1.37462e-05
1.96436e-20
1.37462e-05
2.88269e-20
1.37462e-05
3.49928e-20
1.37462e-05
3.81144e-20
3.42663e-20
1.62457e-05
3.64304e-20
1.62457e-05
2.60642e-20
1.62457e-05
1.47952e-20
1.62457e-05
-2.15334e-21
1.62457e-05
-1.24586e-20
1.62457e-05
-2.51276e-20
1.62457e-05
-3.36648e-20
1.62457e-05
-3.90753e-20
1.62457e-05
-4.27454e-20
1.62457e-05
-4.29186e-20
1.62457e-05
-3.81375e-20
1.62457e-05
-2.9685e-20
1.62457e-05
-1.93183e-20
1.62457e-05
-3.41837e-21
1.62457e-05
1.20258e-20
1.62457e-05
2.42196e-20
1.62457e-05
3.41271e-20
1.62457e-05
4.28406e-20
1.62457e-05
4.21957e-20
4.14485e-20
1.87454e-05
3.53158e-20
1.87454e-05
2.55545e-20
1.87454e-05
1.08225e-20
1.87454e-05
-2.84801e-21
1.87454e-05
-1.85233e-20
1.87454e-05
-2.68159e-20
1.87454e-05
-3.4592e-20
1.87454e-05
-4.03075e-20
1.87454e-05
-4.37073e-20
1.87454e-05
-4.35862e-20
1.87454e-05
-4.19353e-20
1.87454e-05
-3.06232e-20
1.87454e-05
-1.57935e-20
1.87454e-05
-1.4596e-21
1.87454e-05
1.53221e-20
1.87454e-05
2.94836e-20
1.87454e-05
3.76531e-20
1.87454e-05
4.28507e-20
1.87454e-05
4.44163e-20
4.27681e-20
2.12451e-05
3.74392e-20
2.12451e-05
2.6321e-20
2.12451e-05
9.67927e-21
2.12451e-05
-5.9557e-21
2.12451e-05
-1.98299e-20
2.12451e-05
-2.68116e-20
2.12451e-05
-3.49915e-20
2.12451e-05
-3.84448e-20
2.12451e-05
-3.96256e-20
2.12451e-05
-4.04339e-20
2.12451e-05
-3.43254e-20
2.12451e-05
-2.5462e-20
2.12451e-05
-1.47403e-20
2.12451e-05
-2.12804e-21
2.12451e-05
1.37337e-20
2.12451e-05
2.71946e-20
2.12451e-05
3.51941e-20
2.12451e-05
3.84312e-20
2.12451e-05
4.06771e-20
4.1711e-20
2.3745e-05
3.06162e-20
2.3745e-05
2.13477e-20
2.3745e-05
8.23103e-21
2.3745e-05
-4.74012e-21
2.3745e-05
-1.79693e-20
2.3745e-05
-2.64448e-20
2.3745e-05
-3.12016e-20
2.3745e-05
-3.3642e-20
2.3745e-05
-3.49386e-20
2.3745e-05
-3.36032e-20
2.3745e-05
-2.55593e-20
2.3745e-05
-1.9767e-20
2.3745e-05
-1.26339e-20
2.3745e-05
3.74397e-22
2.3745e-05
1.30476e-20
2.3745e-05
2.47793e-20
2.3745e-05
2.94221e-20
2.3745e-05
3.13165e-20
2.3745e-05
3.44962e-20
3.39887e-20
2.6245e-05
2.13822e-20
2.6245e-05
1.43823e-20
2.6245e-05
4.7658e-21
2.6245e-05
-4.58385e-21
2.6245e-05
-1.0385e-20
2.6245e-05
-1.74459e-20
2.6245e-05
-2.44964e-20
2.6245e-05
-2.94753e-20
2.6245e-05
-2.84705e-20
2.6245e-05
-2.52649e-20
2.6245e-05
-1.8447e-20
2.6245e-05
-1.02746e-20
2.6245e-05
-4.87469e-21
2.6245e-05
-5.60488e-22
2.6245e-05
7.04189e-21
2.6245e-05
1.33545e-20
2.6245e-05
2.56776e-20
2.6245e-05
2.69464e-20
2.6245e-05
2.52741e-20
2.54473e-20
2.87451e-05
7.14723e-21
2.87451e-05
4.02434e-21
2.87451e-05
3.2306e-21
2.87451e-05
-7.49891e-21
2.87451e-05
-7.4127e-21
2.87451e-05
-1.21129e-20
2.87451e-05
-1.58362e-20
2.87451e-05
-1.6434e-20
2.87451e-05
-2.14576e-20
2.87451e-05
-1.82102e-20
2.87451e-05
-1.18883e-20
2.87451e-05
-4.88991e-21
2.87451e-05
4.10652e-21
2.87451e-05
7.74505e-21
2.87451e-05
9.92436e-21
2.87451e-05
1.07193e-20
2.87451e-05
1.41014e-20
2.87451e-05
1.88611e-20
2.87451e-05
1.65822e-20
9.25362e-21
3.12454e-05
4.40007e-23
3.12454e-05
-1.65539e-21
3.12454e-05
-5.48595e-21
3.12454e-05
-3.47893e-21
3.12454e-05
-6.1133e-21
3.12454e-05
-9.03612e-21
3.12454e-05
-1.12292e-20
3.12454e-05
-1.2488e-20
3.12454e-05
-1.20917e-20
3.12454e-05
-6.35886e-21
3.12454e-05
-3.2737e-21
3.12454e-05
3.94444e-21
3.12454e-05
9.51114e-21
3.12454e-05
1.2151e-20
3.12454e-05
1.1296e-20
3.12454e-05
9.83531e-21
3.12454e-05
4.53433e-21
3.12454e-05
2.21088e-21
3.12454e-05
4.42336e-21
2.27029e-21
3.37457e-05
-9.3657e-21
3.37457e-05
-1.05595e-20
3.37457e-05
-9.16355e-21
3.37457e-05
-6.62419e-21
3.37457e-05
-5.16495e-21
3.37457e-05
-3.92805e-21
3.37457e-05
-4.80907e-21
3.37457e-05
-3.95317e-21
3.37457e-05
-2.02627e-21
3.37457e-05
1.29728e-21
3.37457e-05
6.59599e-21
3.37457e-05
1.15933e-20
3.37457e-05
1.04209e-20
3.37457e-05
1.23228e-20
3.37457e-05
1.07511e-20
3.37457e-05
7.70907e-21
3.37457e-05
1.01211e-22
3.37457e-05
1.41316e-21
3.37457e-05
7.39897e-22
-3.06809e-21
3.62462e-05
-1.14933e-20
3.62462e-05
-8.49243e-21
3.62462e-05
-8.02458e-21
3.62462e-05
-7.16204e-21
3.62462e-05
-4.18897e-21
3.62462e-05
-6.08516e-21
3.62462e-05
-6.77252e-21
3.62462e-05
-6.36317e-21
3.62462e-05
8.13307e-22
3.62462e-05
5.25931e-21
3.62462e-05
8.98004e-21
3.62462e-05
1.22934e-20
3.62462e-05
2.12668e-20
3.62462e-05
1.70396e-20
3.62462e-05
7.97155e-21
3.62462e-05
4.90319e-21
3.62462e-05
4.33631e-21
3.62462e-05
-4.16414e-21
3.62462e-05
-7.02474e-21
-8.0145e-21
3.87467e-05
-7.20744e-21
3.87467e-05
-7.66223e-21
3.87467e-05
-4.38567e-21
3.87467e-05
2.51732e-21
3.87467e-05
-7.3168e-22
3.87467e-05
-8.79215e-21
3.87467e-05
-8.8245e-21
3.87467e-05
-6.52892e-21
3.87467e-05
4.29161e-21
3.87467e-05
4.81105e-21
3.87467e-05
7.60068e-21
3.87467e-05
1.10261e-20
3.87467e-05
1.31908e-20
3.87467e-05
1.45082e-20
3.87467e-05
1.02945e-20
3.87467e-05
1.72378e-21
3.87467e-05
-3.48025e-22
3.87467e-05
-3.66235e-21
3.87467e-05
-7.22922e-21
-5.19133e-21
4.12474e-05
-1.93045e-21
4.12474e-05
-3.32634e-21
4.12474e-05
-1.13802e-21
4.12474e-05
-3.78021e-22
4.12474e-05
-2.62241e-21
4.12474e-05
-5.92401e-21
4.12474e-05
-9.30592e-21
4.12474e-05
-4.83862e-21
4.12474e-05
-2.11345e-21
4.12474e-05
2.06524e-21
4.12474e-05
6.52367e-21
4.12474e-05
9.70523e-21
4.12474e-05
1.17272e-20
4.12474e-05
1.42944e-20
4.12474e-05
8.62479e-21
4.12474e-05
9.07367e-22
4.12474e-05
-6.19377e-21
4.12474e-05
-6.61646e-21
4.12474e-05
-4.4039e-21
-3.70162e-21
4.37481e-05
4.43513e-21
4.37481e-05
7.24042e-21
4.37481e-05
5.8584e-21
4.37481e-05
2.50937e-21
4.37481e-05
-5.42453e-21
4.37481e-05
-9.23063e-21
4.37481e-05
-8.03701e-21
4.37481e-05
-1.1128e-20
4.37481e-05
-2.14131e-21
4.37481e-05
6.05532e-21
4.37481e-05
3.73989e-21
4.37481e-05
7.02072e-21
4.37481e-05
9.31394e-21
4.37481e-05
6.48156e-21
4.37481e-05
1.65541e-21
4.37481e-05
-3.66876e-21
4.37481e-05
-7.17761e-21
4.37481e-05
-2.64513e-21
4.37481e-05
-1.89133e-21
-1.72708e-21
4.62488e-05
5.40535e-21
4.62488e-05
3.06836e-21
4.62488e-05
5.73502e-21
4.62488e-05
6.08726e-21
4.62488e-05
-2.03639e-21
4.62488e-05
-2.35478e-21
4.62488e-05
-7.53492e-21
4.62488e-05
-5.61706e-21
4.62488e-05
-1.71959e-21
4.62488e-05
6.0482e-21
4.62488e-05
4.70903e-21
4.62488e-05
-3.17981e-21
4.62488e-05
8.18044e-22
4.62488e-05
1.60233e-22
4.62488e-05
1.61986e-21
4.62488e-05
-4.30254e-22
4.62488e-05
-4.68887e-21
4.62488e-05
-1.68362e-21
4.62488e-05
-1.35893e-21
5.13053e-21
4.87496e-05
4.87496e-05
4.87496e-05
4.87496e-05
4.87496e-05
4.87496e-05
4.87496e-05
4.87496e-05
4.87496e-05
4.87496e-05
4.87496e-05
4.87496e-05
4.87496e-05
4.87496e-05
4.87496e-05
4.87496e-05
4.87496e-05
4.87496e-05
4.87496e-05
)
;

boundaryField
{
    movingWall
    {
        type            calculated;
        value           uniform 0;
    }
    fixedWalls
    {
        type            calculated;
        value           uniform 0;
    }
    left
    {
        type            cyclic;
        value           nonuniform List<scalar> 
20
(
-3.87467e-05
-3.62462e-05
-3.37457e-05
-3.12454e-05
-2.87451e-05
-2.6245e-05
-2.3745e-05
-2.12451e-05
-1.87454e-05
-1.62457e-05
-1.37462e-05
-1.12467e-05
-8.74737e-06
-6.24807e-06
-3.74883e-06
-1.2496e-06
-4.12474e-05
-4.37481e-05
-4.62488e-05
-4.87496e-05
)
;
    }
    right
    {
        type            cyclic;
        value           nonuniform List<scalar> 
20
(
3.87467e-05
3.62462e-05
3.37457e-05
3.12454e-05
2.87451e-05
2.6245e-05
2.3745e-05
2.12451e-05
1.87454e-05
1.62457e-05
1.37462e-05
1.12467e-05
8.74737e-06
6.24807e-06
3.74883e-06
1.2496e-06
4.12474e-05
4.37481e-05
4.62488e-05
4.87496e-05
)
;
    }
    frontAndBack
    {
        type            empty;
        value           nonuniform List<scalar> 0();
    }
}


// ************************************************************************* //
