/*--------------------------------*- C++ -*----------------------------------*\
  =========                 |
  \\      /  F ield         | OpenFOAM: The Open Source CFD Toolbox
   \\    /   O peration     | Website:  https://openfoam.org
    \\  /    A nd           | Version:  8
     \\/     M anipulation  |
\*---------------------------------------------------------------------------*/
FoamFile
{
    version     2.0;
    format      ascii;
    class       volScalarField;
    location    "29";
    object      p;
}
// * * * * * * * * * * * * * * * * * * * * * * * * * * * * * * * * * * * * * //

dimensions      [0 2 -2 0 0 0 0];

internalField   nonuniform List<scalar> 
116
(
1.11111e-07
-0.000610611
-0.00108835
-0.00254297
0.00041416
-0.00775523
0.000395188
9.99421e-05
2.20395e-05
-0.0027427
-0.00140357
-0.00297965
0.000656258
0.000333121
0.000149813
-0.00208054
-0.00478505
-0.00759867
0.000721078
0.000539439
-0.000138314
-0.00256338
-0.00675562
-0.00908111
0.000352366
0.000231776
-0.000809011
-0.0035073
-0.00892826
-0.0116369
-0.000398805
-0.000431565
-0.00145229
-0.00348537
-0.00842098
-0.011099
-0.000454912
-0.000777275
-0.00145752
-0.00283036
-0.00645361
-0.00963097
-0.00147622
-0.000937367
-0.000900093
-0.00111215
-0.00286208
-0.00443024
-0.000162549
-0.00166482
-0.000745892
-0.00107834
-0.00154486
-0.0032172
-0.00680424
0.000454028
0.00111073
0.00129893
0.000793141
-0.000469553
0.000660088
0.00812831
0.00689217
0.011331
-0.00142824
0.0017697
0.00369929
0.00641328
-0.00681084
-0.00435684
-0.0021266
0.000428609
-0.00917933
-0.0071357
-0.00633491
-0.00358478
-0.011799
-0.00916709
-0.0089911
-0.0057576
-0.011631
-0.00832132
-0.00903774
-0.00539348
-0.0104788
-0.00736673
-0.00928735
-0.00227404
-0.00448355
-0.0025654
-0.00317155
0.00610732
-0.00508528
-0.00398186
-0.00368331
0.0119583
-0.00140232
0.00431884
0.0150641
0.0502037
0.0142367
0.014076
0.013888
0.0169284
0.0128508
0.0131948
0.0115651
0.0137302
0.0096206
0.0103813
0.00871733
0.00959374
0.00637144
0.0125906
0.00751724
0.0109441
)
;

boundaryField
{
    movingWall
    {
        type            zeroGradient;
    }
    fixedWalls
    {
        type            zeroGradient;
    }
    frontAndBack
    {
        type            empty;
    }
}


// ************************************************************************* //
