/*--------------------------------*- C++ -*----------------------------------*\
  =========                 |
  \\      /  F ield         | OpenFOAM: The Open Source CFD Toolbox
   \\    /   O peration     | Website:  https://openfoam.org
    \\  /    A nd           | Version:  8
     \\/     M anipulation  |
\*---------------------------------------------------------------------------*/
FoamFile
{
    version     2.0;
    format      ascii;
    class       volScalarField;
    location    "33";
    object      p;
}
// * * * * * * * * * * * * * * * * * * * * * * * * * * * * * * * * * * * * * //

dimensions      [0 2 -2 0 0 0 0];

internalField   nonuniform List<scalar> 
12504
(
0.320917
0.317845
0.311387
0.301529
0.288538
0.272762
0.254581
0.234426
0.212779
0.19015
0.167036
0.143901
0.121143
0.0990866
0.0779772
0.0579898
0.039241
0.0218024
0.00571254
-0.00901487
-0.0223839
-0.0344122
-0.0451259
-0.0545583
-0.0627463
-0.0697315
-0.0755562
-0.0802673
-0.0839096
-0.0865338
-0.0881857
-0.0889193
-0.0887798
-0.0878249
-0.086099
-0.0836666
-0.0805633
-0.0768635
-0.0725908
-0.0678365
-0.0626017
-0.0570066
-0.0510114
-0.0447882
-0.0382246
-0.031586
-0.02463
-0.0177918
-0.0105959
-0.00379156
0.323126
0.319989
0.313386
0.30331
0.29004
0.273939
0.255402
0.234881
0.212879
0.189923
0.166529
0.143169
0.120245
0.0980767
0.0769022
0.0568857
0.0381343
0.0207115
0.0046498
-0.0100417
-0.0233705
-0.0353564
-0.0460271
-0.055417
-0.0635632
-0.0705079
-0.0762933
-0.0809663
-0.0845717
-0.0871601
-0.0887771
-0.0894768
-0.0893039
-0.0883159
-0.0865574
-0.0840935
-0.0809583
-0.0772275
-0.0729234
-0.0681389
-0.0628729
-0.0572485
-0.0512223
-0.044971
-0.0383763
-0.0317116
-0.0247239
-0.0178627
-0.010633
-0.00381056
0.327602
0.324325
0.317428
0.306908
0.293069
0.276302
0.25704
0.235771
0.213043
0.189424
0.165463
0.141652
0.118397
0.0960113
0.0747127
0.0546443
0.0358931
0.0185065
0.00250476
-0.0121121
-0.0253581
-0.0372576
-0.0478413
-0.057145
-0.0652071
-0.07207
-0.0777762
-0.0823726
-0.0859039
-0.0884202
-0.0899671
-0.0905983
-0.0903581
-0.0893037
-0.0874802
-0.0849523
-0.0817534
-0.0779598
-0.073593
-0.0687469
-0.0634191
-0.0577344
-0.0516473
-0.0453374
-0.038683
-0.0319617
-0.0249157
-0.0180004
-0.0107136
-0.00384003
0.334443
0.330948
0.323595
0.312389
0.297668
0.27987
0.259479
0.237051
0.213199
0.188559
0.163732
0.13924
0.115499
0.0927999
0.0713321
0.0512023
0.0324656
0.0151448
-0.000758004
-0.0152559
-0.0283725
-0.0401387
-0.0505888
-0.0597612
-0.0676953
-0.0744342
-0.0800205
-0.084501
-0.0879199
-0.0903274
-0.0917681
-0.0922957
-0.0919532
-0.0907991
-0.0888772
-0.0862525
-0.0829571
-0.0790684
-0.0746065
-0.0696672
-0.0642458
-0.0584697
-0.0522904
-0.0458915
-0.0391467
-0.0323395
-0.0252055
-0.0182079
-0.0108361
-0.00388326
0.343805
0.340007
0.332021
0.31986
0.303908
0.284666
0.262698
0.238647
0.213228
0.187174
0.161162
0.13576
0.111385
0.0882996
0.0666404
0.0464605
0.0277699
0.0105583
-0.00519555
-0.019522
-0.0324564
-0.0440376
-0.0543044
-0.0632976
-0.0710578
-0.0776288
-0.0830528
-0.0873768
-0.0906441
-0.0929046
-0.094202
-0.0945899
-0.0941088
-0.0928211
-0.0907661
-0.0880103
-0.0845843
-0.080567
-0.0759765
-0.0709112
-0.0653629
-0.0594633
-0.0531591
-0.0466398
-0.0397725
-0.0328493
-0.025596
-0.0184875
-0.0110007
-0.00394203
0.355908
0.351711
0.342889
0.329467
0.311884
0.290726
0.266656
0.240445
0.21295
0.185038
0.157497
0.130954
0.105821
0.0823077
0.0604694
0.0402812
0.0216929
0.00465311
-0.0108873
-0.0249787
-0.0376702
-0.049009
-0.0590383
-0.0678011
-0.0753387
-0.0816953
-0.0869128
-0.0910376
-0.0941122
-0.096186
-0.0973013
-0.0975118
-0.0968578
-0.0953983
-0.0931728
-0.0902494
-0.0866569
-0.0824759
-0.0777215
-0.0724954
-0.0667854
-0.0607283
-0.0542645
-0.0475919
-0.040568
-0.0334969
-0.0260913
-0.0188424
-0.0112088
-0.00401792
0.371039
0.366331
0.356444
0.341405
0.321724
0.298087
0.271291
0.242278
0.2121
0.181817
0.152371
0.124462
0.0984843
0.0745513
0.052596
0.0324832
0.0140856
-0.00269532
-0.0179394
-0.0317187
-0.0440968
-0.0551289
-0.0648612
-0.0733379
-0.0806006
-0.0866933
-0.091657
-0.0955375
-0.0983756
-0.10022
-0.101112
-0.101105
-0.100239
-0.0985689
-0.096134
-0.093004
-0.0892062
-0.0848238
-0.0798676
-0.0744437
-0.0685343
-0.0622833
-0.0556227
-0.0487613
-0.0415439
-0.0342914
-0.0266972
-0.019277
-0.0114621
-0.00411297
0.389566
0.384218
0.372998
0.355923
0.333587
0.306793
0.276506
0.243899
0.210295
0.177031
0.145266
0.115789
0.0889392
0.0646723
0.0427326
0.0228335
0.00475593
-0.0116485
-0.0264907
-0.0398651
-0.0518484
-0.0625011
-0.0718704
-0.0800001
-0.0869309
-0.092706
-0.0973647
-0.100952
-0.103506
-0.105076
-0.1057
-0.105431
-0.104306
-0.102386
-0.0996993
-0.0963206
-0.0922753
-0.0876501
-0.0824506
-0.0767883
-0.0706385
-0.0641539
-0.0572558
-0.050167
-0.0427157
-0.0352447
-0.0274224
-0.0197976
-0.0117634
-0.00422968
0.411949
0.40581
0.392945
0.373338
0.347676
0.316888
0.282148
0.244943
0.206975
0.169984
0.135443
0.104246
0.0766069
0.0522107
0.0305171
0.0110399
-0.00653946
-0.0224138
-0.0367224
-0.0495806
-0.0610748
-0.0712661
-0.0801984
-0.0879132
-0.0944488
-0.0998464
-0.104143
-0.107382
-0.1096
-0.110843
-0.111149
-0.11057
-0.109139
-0.106918
-0.103933
-0.100259
-0.0959195
-0.0910053
-0.0855166
-0.0795707
-0.0731352
-0.0663727
-0.0591923
-0.0518329
-0.0441034
-0.0363729
-0.0282786
-0.0204122
-0.0121169
-0.00437041
0.438754
0.431646
0.416778
0.394047
0.364246
0.328408
0.287982
0.244877
0.20132
0.159662
0.121844
0.088873
0.0607095
0.0365757
0.0154988
-0.00325862
-0.020103
-0.0352523
-0.0488662
-0.0610766
-0.0719727
-0.0816082
-0.0900188
-0.0972406
-0.103308
-0.10826
-0.112129
-0.114956
-0.116776
-0.117635
-0.117566
-0.116621
-0.114829
-0.112251
-0.10891
-0.104887
-0.100202
-0.0949469
-0.0891178
-0.0828375
-0.0760664
-0.0689766
-0.0614651
-0.0537869
-0.0457309
-0.0376942
-0.0292805
-0.0211297
-0.0125281
-0.00453586
0.470668
0.462391
0.445114
0.418549
0.383615
0.34137
0.293635
0.242879
0.192104
0.144591
0.102963
0.0683383
0.0402026
0.0170013
-0.00289116
-0.0205089
-0.0363034
-0.0504797
-0.0632034
-0.0746118
-0.0847824
-0.0937506
-0.101538
-0.108173
-0.113685
-0.118107
-0.121469
-0.123809
-0.125158
-0.125562
-0.125052
-0.123678
-0.121463
-0.118459
-0.1147
-0.110269
-0.105179
-0.0995245
-0.0932988
-0.0866284
-0.0794681
-0.071997
-0.0641027
-0.0560526
-0.04762
-0.0392248
-0.0304428
-0.0219574
-0.0130034
-0.00472256
0.508516
0.498851
0.478713
0.447482
0.406203
0.35576
0.298515
0.23764
0.177388
0.122543
0.0766618
0.0408665
0.0137674
-0.00745622
-0.0253517
-0.0412529
-0.0555697
-0.0684457
-0.0800329
-0.0904509
-0.0997403
-0.107902
-0.114938
-0.120867
-0.125712
-0.129499
-0.132255
-0.134013
-0.134804
-0.134669
-0.133643
-0.131772
-0.129056
-0.125556
-0.121315
-0.116412
-0.110856
-0.104743
-0.0980634
-0.0909462
-0.0833438
-0.0754367
-0.06711
-0.0586339
-0.0497776
-0.0409682
-0.0317731
-0.022895
-0.0135474
-0.00491948
0.553264
0.542001
0.518512
0.481669
0.432566
0.371544
0.301747
0.227096
0.153985
0.0899054
0.0397231
0.00410981
-0.0200941
-0.0377573
-0.0525758
-0.066015
-0.0782802
-0.0894129
-0.0995375
-0.108718
-0.116919
-0.124089
-0.130205
-0.135276
-0.139313
-0.142338
-0.144371
-0.145441
-0.145575
-0.144817
-0.143193
-0.140758
-0.137455
-0.133398
-0.128621
-0.123191
-0.117118
-0.110495
-0.103317
-0.0957062
-0.0876203
-0.0792323
-0.0704353
-0.0614871
-0.0521725
-0.0428976
-0.0332581
-0.0239261
-0.0141581
-0.0051059
0.60602
0.593
0.565649
0.522192
0.463427
0.388658
0.302051
0.208174
0.116912
0.0407199
-0.0131249
-0.045335
-0.0630111
-0.0745494
-0.0848245
-0.0948614
-0.104345
-0.113172
-0.121417
-0.129032
-0.135866
-0.141803
-0.146792
-0.150825
-0.153901
-0.156034
-0.157233
-0.157525
-0.156929
-0.155497
-0.153261
-0.150117
-0.146199
-0.14157
-0.136236
-0.130258
-0.123648
-0.116498
-0.108805
-0.100684
-0.0921012
-0.0832143
-0.0739359
-0.0644929
-0.0547104
-0.0449368
-0.034847
-0.025008
-0.0148199
-0.00525385
0.668007
0.653205
0.621517
0.570484
0.499651
0.406877
0.297113
0.17572
0.0590247
-0.0335577
-0.0897159
-0.112257
-0.116619
-0.117682
-0.12114
-0.126437
-0.132234
-0.138156
-0.144103
-0.149814
-0.154996
-0.159469
-0.163155
-0.166021
-0.16805
-0.169237
-0.169577
-0.169089
-0.1678
-0.165696
-0.162721
-0.15899
-0.154531
-0.149372
-0.143517
-0.137029
-0.129922
-0.122282
-0.11411
-0.105511
-0.0964639
-0.0871041
-0.0773729
-0.067452
-0.0572279
-0.0469571
-0.0364439
-0.026071
-0.0154984
-0.00533738
0.740517
0.724145
0.687904
0.628536
0.542369
0.425559
0.282125
0.118698
-0.0305357
-0.142054
-0.196563
-0.19953
-0.180438
-0.164707
-0.157876
-0.15646
-0.157586
-0.160262
-0.163832
-0.167628
-0.171182
-0.174254
-0.176733
-0.178555
-0.179676
-0.180069
-0.179711
-0.178588
-0.17669
-0.174026
-0.170603
-0.166453
-0.161577
-0.156002
-0.149743
-0.142855
-0.135357
-0.127324
-0.118766
-0.109774
-0.100343
-0.0905833
-0.080469
-0.0701319
-0.0595269
-0.0488044
-0.0379241
-0.0270333
-0.0161432
-0.00534323
0.824787
0.807419
0.767249
0.699363
0.593906
0.443849
0.248564
0.0175311
-0.173989
-0.292718
-0.329043
-0.297713
-0.245165
-0.207441
-0.187525
-0.178109
-0.174568
-0.174647
-0.176616
-0.179229
-0.181807
-0.184044
-0.185795
-0.18698
-0.187547
-0.187462
-0.186689
-0.185185
-0.182947
-0.179995
-0.176321
-0.17192
-0.166792
-0.160966
-0.154459
-0.14732
-0.13957
-0.131273
-0.12245
-0.113179
-0.103471
-0.0934137
-0.0830093
-0.0723482
-0.0614425
-0.0503512
-0.0391727
-0.0278282
-0.0166981
-0.00527212
0.921637
0.904449
0.862765
0.787698
0.660192
0.463917
0.18274
-0.142501
-0.328761
-0.438211
-0.43824
-0.368998
-0.2859
-0.232086
-0.204643
-0.190544
-0.18438
-0.182937
-0.183813
-0.185564
-0.18749
-0.189242
-0.190627
-0.191528
-0.191868
-0.191593
-0.190661
-0.189062
-0.186762
-0.18371
-0.179935
-0.175432
-0.170203
-0.164271
-0.157653
-0.15039
-0.142509
-0.134067
-0.12509
-0.115647
-0.105762
-0.0955067
-0.0849038
-0.0740155
-0.0628896
-0.0515289
-0.0401163
-0.0284197
-0.0171101
-0.0051276
1.03074
1.01596
0.9778
0.90012
0.753671
0.498618
0.163193
-0.231546
-0.522303
-0.606049
-0.565712
-0.427189
-0.310971
-0.245775
-0.205952
-0.191314
-0.185775
-0.184911
-0.186105
-0.18798
-0.189921
-0.191632
-0.192952
-0.193783
-0.194059
-0.193732
-0.192762
-0.191119
-0.18877
-0.185721
-0.181933
-0.177409
-0.172158
-0.166204
-0.159559
-0.152257
-0.144328
-0.135823
-0.126775
-0.117242
-0.107259
-0.0968878
-0.0861618
-0.07513
-0.0638536
-0.0523182
-0.0407246
-0.0287945
-0.0173297
-0.00490617
1.14974
1.14112
1.1137
1.04451
0.892056
0.607318
0.174207
-0.279182
-0.61303
-0.321141
-0.247381
-0.210768
-0.191839
-0.187027
-0.186212
-0.187345
-0.189118
-0.190951
-0.192569
-0.193812
-0.194586
-0.194823
-0.194472
-0.193491
-0.191847
-0.189513
-0.18647
-0.182708
-0.178225
-0.172993
-0.167062
-0.160438
-0.153151
-0.14523
-0.136719
-0.127656
-0.118093
-0.10807
-0.0976416
-0.0868492
-0.0757374
-0.0643667
-0.0527327
-0.0410044
-0.0289528
-0.0173245
-0.00460703
1.27365
1.27592
1.26721
1.22815
1.08017
0.768156
0.282482
-0.241399
-0.208312
-0.192553
-0.185899
-0.185579
-0.186839
-0.188651
-0.190504
-0.19214
-0.193405
-0.194202
-0.194464
-0.194141
-0.193192
-0.191584
-0.189292
-0.186296
-0.182582
-0.178134
-0.172985
-0.167112
-0.160542
-0.153305
-0.145429
-0.136952
-0.127914
-0.118361
-0.108337
-0.097892
-0.0870722
-0.0759229
-0.0645
-0.0528188
-0.0409997
-0.0289131
-0.0171282
-0.00422846
1.39493
1.41121
1.43287
1.43894
1.32066
1.0157
-0.204977
-0.188276
-0.182481
-0.182968
-0.184641
-0.186748
-0.188827
-0.19064
-0.192047
-0.192958
-0.193315
-0.193072
-0.192194
-0.190654
-0.188428
-0.1855
-0.181859
-0.177494
-0.172408
-0.166624
-0.16013
-0.152968
-0.145161
-0.136745
-0.127757
-0.11824
-0.108239
-0.0978021
-0.086978
-0.0758148
-0.0643662
-0.052665
-0.0407951
-0.0287179
-0.0168997
-0.00368357
1.5022
1.53458
1.59121
1.65242
1.58541
1.35081
-0.18127
-0.177509
-0.179008
-0.181388
-0.184014
-0.186479
-0.188585
-0.190215
-0.191298
-0.19179
-0.191655
-0.190869
-0.189411
-0.187263
-0.184413
-0.180852
-0.176574
-0.171578
-0.165868
-0.159478
-0.152408
-0.144687
-0.136347
-0.127423
-0.117957
-0.10799
-0.0975723
-0.0867523
-0.0755826
-0.064117
-0.0524003
-0.0405146
-0.0285039
-0.0163555
-0.00359516
1.58326
1.62973
1.719
1.83389
1.8372
1.72082
-0.176788
-0.172309
-0.174976
-0.178161
-0.181355
-0.18423
-0.186635
-0.188486
-0.189735
-0.190353
-0.190318
-0.189615
-0.18823
-0.186153
-0.183376
-0.179891
-0.175696
-0.170792
-0.165181
-0.158877
-0.151901
-0.144271
-0.136012
-0.127159
-0.117746
-0.107816
-0.0974158
-0.0865957
-0.0754118
-0.0639197
-0.0521745
-0.0402811
-0.0283035
-0.0159011
-0.00339252
1.62703
1.68177
1.79067
1.93699
2.01428
-0.163787
-0.169068
-0.172461
-0.176149
-0.179701
-0.18283
-0.185416
-0.187394
-0.188734
-0.189418
-0.189434
-0.188775
-0.187432
-0.185401
-0.182675
-0.17925
-0.175125
-0.170299
-0.164775
-0.158567
-0.151683
-0.144138
-0.135954
-0.127168
-0.117806
-0.107905
-0.0975116
-0.0866772
-0.0754598
-0.0639178
-0.052117
-0.040188
-0.0281914
-0.0156239
-0.00324063
1.62705
1.68179
1.79069
1.93702
2.0508
-0.160163
-0.169028
-0.172418
-0.176097
-0.179635
-0.182745
-0.185307
-0.18726
-0.188574
-0.189233
-0.189229
-0.188556
-0.18721
-0.185187
-0.182483
-0.179096
-0.175022
-0.170261
-0.164812
-0.158682
-0.151878
-0.144408
-0.13628
-0.127562
-0.11824
-0.108356
-0.097955
-0.0870864
-0.0758103
-0.0641901
-0.0523001
-0.0402831
-0.0282161
-0.0156106
-0.00322335
1.58331
1.62978
1.71907
1.83398
1.94048
-0.165599
-0.172199
-0.174854
-0.178011
-0.181162
-0.183979
-0.186315
-0.188089
-0.189259
-0.189803
-0.189707
-0.188965
-0.187571
-0.18552
-0.182809
-0.179433
-0.175389
-0.170673
-0.165283
-0.159218
-0.152478
-0.145075
-0.137044
-0.12834
-0.119034
-0.109148
-0.0987214
-0.0878007
-0.0764461
-0.064726
-0.0527209
-0.0405708
-0.028385
-0.0158652
-0.00333991
1.50229
1.53468
1.59132
1.65256
1.71002
1.64339
-0.176886
-0.17735
-0.178824
-0.181154
-0.183705
-0.186074
-0.188064
-0.189567
-0.190522
-0.190894
-0.190662
-0.189814
-0.188341
-0.186238
-0.183499
-0.180117
-0.176086
-0.171399
-0.16605
-0.160032
-0.153346
-0.146005
-0.137994
-0.129328
-0.120033
-0.110135
-0.0996721
-0.0886901
-0.0772495
-0.0654244
-0.0532991
-0.0410078
-0.028661
-0.016309
-0.00351082
1.39505
1.41134
1.43301
1.43911
1.44504
1.28435
-0.184742
-0.182301
-0.182745
-0.184342
-0.186341
-0.188284
-0.189937
-0.191171
-0.191908
-0.192103
-0.19173
-0.190772
-0.189216
-0.187055
-0.184281
-0.180884
-0.176858
-0.172188
-0.166867
-0.160891
-0.154252
-0.146935
-0.13895
-0.130301
-0.121007
-0.11109
-0.100589
-0.0895487
-0.0780313
-0.0661171
-0.0538895
-0.0414945
-0.0289689
-0.0168606
-0.003611
1.2738
1.27608
1.26738
1.22835
1.18946
0.877088
0.539501
-0.202363
-0.191371
-0.185722
-0.185337
-0.186494
-0.188166
-0.189845
-0.19128
-0.192329
-0.192911
-0.192978
-0.192499
-0.191457
-0.189838
-0.187632
-0.184832
-0.181425
-0.177402
-0.172742
-0.167456
-0.161506
-0.154889
-0.147597
-0.139631
-0.130991
-0.121694
-0.11176
-0.10123
-0.0901475
-0.0785791
-0.0666118
-0.0543216
-0.0418921
-0.0292878
-0.0171534
-0.00413634
1.14991
1.14129
1.11388
1.04473
0.892305
0.671785
0.185078
-0.210255
-0.245759
-0.211703
-0.191711
-0.186864
-0.185964
-0.186968
-0.188571
-0.190197
-0.191578
-0.192572
-0.193099
-0.193115
-0.192593
-0.191515
-0.18987
-0.187647
-0.18484
-0.181427
-0.177426
-0.172797
-0.167515
-0.161587
-0.154994
-0.147723
-0.139773
-0.131141
-0.121848
-0.11191
-0.101373
-0.0902798
-0.0787034
-0.0667364
-0.0544453
-0.0420575
-0.0294459
-0.0174239
-0.00453322
1.03093
1.01615
0.978001
0.900339
0.753917
0.498902
0.161202
-0.318883
-0.556048
-0.445526
-0.315787
-0.25192
-0.205836
-0.191198
-0.185615
-0.184652
-0.185697
-0.187378
-0.189086
-0.190537
-0.191584
-0.192151
-0.192195
-0.191694
-0.190634
-0.189008
-0.186797
-0.184022
-0.180649
-0.176648
-0.172034
-0.166785
-0.160883
-0.154316
-0.147066
-0.13914
-0.130528
-0.121261
-0.111346
-0.100842
-0.0897867
-0.0782642
-0.066366
-0.054157
-0.0418882
-0.0293847
-0.0175052
-0.00486452
0.921836
0.904651
0.862976
0.787922
0.660435
0.464182
0.183032
-0.142188
-0.42457
-0.552269
-0.510455
-0.399623
-0.285726
-0.231936
-0.204511
-0.190409
-0.184194
-0.182642
-0.183356
-0.184902
-0.186583
-0.188066
-0.189174
-0.189811
-0.189926
-0.189491
-0.18849
-0.186924
-0.184802
-0.182056
-0.178718
-0.174773
-0.170205
-0.165001
-0.159137
-0.152612
-0.145403
-0.137526
-0.128965
-0.119763
-0.10992
-0.0995114
-0.0885616
-0.0771761
-0.0654293
-0.0534065
-0.0413329
-0.0290736
-0.0173491
-0.005121
0.824997
0.807632
0.767467
0.699591
0.594146
0.444103
0.248833
0.0178114
-0.173708
-0.29245
-0.328797
-0.297494
-0.244969
-0.20726
-0.18735
-0.177918
-0.174318
-0.174286
-0.176094
-0.178503
-0.180844
-0.182822
-0.184312
-0.185254
-0.185622
-0.185405
-0.184596
-0.183175
-0.181123
-0.17849
-0.175265
-0.171431
-0.166961
-0.161848
-0.156069
-0.149632
-0.142515
-0.134741
-0.126292
-0.117225
-0.10753
-0.0973037
-0.0865501
-0.0754056
-0.0639059
-0.0521889
-0.0403895
-0.0285127
-0.016982
-0.00529777
0.740736
0.724366
0.688129
0.628768
0.542609
0.425808
0.282382
0.118961
-0.030271
-0.141794
-0.196315
-0.199297
-0.180217
-0.16449
-0.15765
-0.156205
-0.157267
-0.159836
-0.163255
-0.166866
-0.170206
-0.173049
-0.1753
-0.176916
-0.177875
-0.178174
-0.177812
-0.176788
-0.175107
-0.172766
-0.169767
-0.166159
-0.161907
-0.156998
-0.151409
-0.14516
-0.138229
-0.130656
-0.122418
-0.113589
-0.104147
-0.0942145
-0.0837668
-0.0729809
-0.0618326
-0.0505421
-0.0391005
-0.0277236
-0.0164564
-0.00539725
0.668233
0.653433
0.621748
0.57072
0.499892
0.407124
0.297366
0.175976
0.0592829
-0.0333015
-0.0894648
-0.112012
-0.116376
-0.117433
-0.120873
-0.126133
-0.131867
-0.137693
-0.14351
-0.149062
-0.154064
-0.158348
-0.161849
-0.164554
-0.166463
-0.167591
-0.167951
-0.167572
-0.166493
-0.164741
-0.162139
-0.158888
-0.154981
-0.150411
-0.145145
-0.139213
-0.132593
-0.125343
-0.117436
-0.108964
-0.0998929
-0.0903693
-0.0803388
-0.0700213
-0.0593228
-0.0485567
-0.0375536
-0.0267509
-0.0158301
-0.0054163
0.606253
0.593234
0.565886
0.522432
0.463671
0.388906
0.302303
0.208429
0.117169
0.0409771
-0.0128683
-0.0450782
-0.0627501
-0.074277
-0.0845296
-0.0945287
-0.103954
-0.112699
-0.120837
-0.128323
-0.135014
-0.140803
-0.145651
-0.149564
-0.152558
-0.154661
-0.155895
-0.156296
-0.155877
-0.154698
-0.152892
-0.150175
-0.146712
-0.142577
-0.137739
-0.132228
-0.126024
-0.119196
-0.111719
-0.103698
-0.0950893
-0.0860602
-0.0765285
-0.0667515
-0.0565716
-0.0463814
-0.0358761
-0.0256665
-0.0151611
-0.00535329
0.553502
0.54224
0.518753
0.481913
0.432813
0.371794
0.302001
0.227352
0.154244
0.0901664
0.0399864
0.00437723
-0.0198187
-0.0374675
-0.0522625
-0.0656661
-0.0778803
-0.0889445
-0.0989829
-0.108062
-0.116153
-0.123212
-0.129225
-0.134211
-0.138195
-0.141211
-0.143287
-0.144461
-0.144762
-0.144248
-0.14295
-0.140898
-0.137972
-0.134318
-0.129949
-0.124902
-0.119162
-0.112802
-0.1058
-0.0982704
-0.0901643
-0.081661
-0.0726599
-0.0634406
-0.053803
-0.0441866
-0.0342009
-0.0245543
-0.0144995
-0.00521942
0.508759
0.499095
0.478958
0.447729
0.406453
0.356013
0.298771
0.237899
0.17765
0.122809
0.0769322
0.0411434
0.0140544
-0.0071537
-0.0250262
-0.040895
-0.0551679
-0.0679875
-0.0795062
-0.0898461
-0.0990521
-0.107131
-0.114093
-0.119966
-0.12478
-0.128574
-0.131379
-0.133236
-0.13418
-0.134253
-0.133488
-0.131913
-0.129536
-0.126372
-0.122461
-0.117868
-0.112583
-0.106684
-0.10015
-0.0931012
-0.0854866
-0.0774903
-0.0690035
-0.060312
-0.051197
-0.0421109
-0.0326288
-0.0234848
-0.0138793
-0.00503944
0.470916
0.462639
0.445363
0.4188
0.383869
0.341627
0.293895
0.243142
0.192371
0.144862
0.10324
0.0686235
0.0404991
0.0173135
-0.00255715
-0.0201458
-0.0359029
-0.0500329
-0.0627022
-0.0740504
-0.0841585
-0.0930667
-0.100803
-0.107402
-0.112901
-0.11734
-0.120754
-0.123187
-0.124672
-0.125253
-0.12496
-0.123838
-0.121897
-0.119172
-0.115684
-0.111504
-0.106635
-0.101157
-0.0950514
-0.0884394
-0.0812737
-0.0737348
-0.0657157
-0.0574952
-0.0488551
-0.0402351
-0.0312139
-0.0225027
-0.0133175
-0.00484209
0.439005
0.431898
0.417032
0.394301
0.364503
0.328668
0.288246
0.245144
0.201591
0.159939
0.122128
0.0891655
0.0610137
0.0368956
0.015839
-0.00289259
-0.019705
-0.0348163
-0.0483871
-0.0605512
-0.0714007
-0.0809935
-0.0893701
-0.096572
-0.102639
-0.107615
-0.111539
-0.114453
-0.116394
-0.117406
-0.117523
-0.116787
-0.11522
-0.112875
-0.109759
-0.105944
-0.101441
-0.0963308
-0.0906023
-0.0843723
-0.0776002
-0.0704585
-0.0628487
-0.0550339
-0.0468093
-0.0385877
-0.0299721
-0.0216279
-0.0128192
-0.00465012
0.412204
0.406065
0.393201
0.373596
0.347937
0.317151
0.282415
0.245214
0.207251
0.170266
0.135732
0.104545
0.0769177
0.0525366
0.0308617
0.0114075
-0.0061446
-0.0219877
-0.0362621
-0.0490847
-0.0605447
-0.0707064
-0.0796178
-0.0873245
-0.0938692
-0.0992971
-0.103649
-0.106969
-0.109296
-0.110676
-0.111142
-0.110742
-0.109505
-0.107473
-0.104675
-0.101176
-0.096989
-0.0921957
-0.0867917
-0.0808889
-0.0744546
-0.0676513
-0.0603916
-0.0529206
-0.0450511
-0.0371657
-0.0288983
-0.020864
-0.012383
-0.00447672
0.389824
0.384477
0.373257
0.356184
0.333851
0.30706
0.276776
0.244173
0.210575
0.177318
0.14556
0.116093
0.0892553
0.0650028
0.0430805
0.0232018
0.00514755
-0.0112311
-0.0260461
-0.0393934
-0.0513521
-0.0619855
-0.0713437
-0.0794743
-0.0864212
-0.0922306
-0.0969445
-0.100609
-0.103263
-0.104955
-0.10572
-0.105607
-0.104646
-0.102887
-0.100361
-0.0971309
-0.0932145
-0.0886914
-0.0835636
-0.0779384
-0.0717904
-0.0652725
-0.0583083
-0.0511259
-0.0435557
-0.0359521
-0.0279787
-0.0202064
-0.0120051
-0.00432714
0.3713
0.366593
0.356707
0.341669
0.32199
0.298357
0.271565
0.242556
0.212384
0.182108
0.15267
0.124771
0.0988048
0.0748855
0.0529463
0.0328516
0.0144741
-0.00228545
-0.0175079
-0.0312668
-0.0436278
-0.0546483
-0.0643772
-0.0728616
-0.0801456
-0.0862756
-0.0912946
-0.095249
-0.0981801
-0.100135
-0.101153
-0.101283
-0.100559
-0.0990317
-0.0967358
-0.0937333
-0.0900458
-0.0857507
-0.0808558
-0.0754637
-0.0695558
-0.0632765
-0.0565591
-0.0496171
-0.0422961
-0.0349275
-0.0271994
-0.0196476
-0.0116815
-0.00420179
0.356171
0.351974
0.343154
0.329734
0.312154
0.290998
0.266932
0.240726
0.213237
0.185332
0.1578
0.131266
0.106145
0.0826449
0.0608214
0.0406495
0.0220786
0.00505658
-0.0104667
-0.0245429
-0.037223
-0.0485563
-0.0585881
-0.0673636
-0.0749265
-0.0813226
-0.0865952
-0.0907913
-0.0939531
-0.0961287
-0.0973583
-0.0976918
-0.0971657
-0.0958332
-0.0937296
-0.0909171
-0.0874204
-0.0833154
-0.078614
-0.0734152
-0.0677061
-0.0616238
-0.0551097
-0.0483657
-0.0412495
-0.0340749
-0.0265484
-0.0191804
-0.0114088
-0.004099
0.34407
0.340273
0.332288
0.320129
0.304179
0.284941
0.262976
0.23893
0.213519
0.187471
0.161468
0.136076
0.111712
0.088639
0.0669936
0.0468285
0.0281531
0.0109565
-0.00478368
-0.019099
-0.0320264
-0.0436067
-0.0538804
-0.0628902
-0.0706786
-0.0772906
-0.0827696
-0.0871627
-0.0905129
-0.0928686
-0.0942714
-0.0947718
-0.0944084
-0.0932351
-0.0912888
-0.0886314
-0.0852904
-0.0813403
-0.0767963
-0.0717546
-0.0662064
-0.0602837
-0.0539336
-0.0473497
-0.0403984
-0.0333807
-0.0260166
-0.0187987
-0.0111847
-0.00401659
0.33471
0.331215
0.323864
0.31266
0.297941
0.280146
0.25976
0.237337
0.213492
0.188859
0.16404
0.139558
0.115828
0.093141
0.0716862
0.05157
0.0328468
0.0155388
-0.000352959
-0.0148428
-0.0279558
-0.0397244
-0.0501846
-0.0593765
-0.0673409
-0.074122
-0.0797631
-0.084311
-0.0878095
-0.0903072
-0.0918467
-0.092479
-0.0922441
-0.0911965
-0.0893742
-0.0868392
-0.0836207
-0.0797926
-0.0753723
-0.0704539
-0.0650317
-0.0592337
-0.0530117
-0.0465529
-0.03973
-0.0328351
-0.0255977
-0.0184981
-0.0110073
-0.00395262
0.32787
0.324594
0.317698
0.30718
0.293343
0.27658
0.257322
0.236059
0.213337
0.189726
0.165773
0.141972
0.118728
0.0963536
0.0750673
0.0550116
0.0362728
0.0188974
0.00290479
-0.0117062
-0.0249509
-0.0368553
-0.0474514
-0.0567766
-0.0648704
-0.0717763
-0.0775372
-0.0821998
-0.0858082
-0.0884113
-0.0900523
-0.0907826
-0.0906433
-0.0896891
-0.0879589
-0.0855146
-0.0823871
-0.0786493
-0.0743205
-0.0694932
-0.064164
-0.0584582
-0.0523305
-0.0459638
-0.0392354
-0.0324311
-0.025287
-0.0182751
-0.0108755
-0.00390553
0.323395
0.320259
0.313657
0.303583
0.290315
0.274217
0.255685
0.23517
0.213174
0.190225
0.16684
0.14349
0.120576
0.0984198
0.0772572
0.0572528
0.0385129
0.0211003
0.00504652
-0.00964053
-0.0229696
-0.0349619
-0.0456465
-0.0550591
-0.063238
-0.0702261
-0.076066
-0.0808045
-0.0844856
-0.0871584
-0.0888667
-0.0896619
-0.0895859
-0.0886936
-0.0870244
-0.0846401
-0.0815728
-0.0778947
-0.0736264
-0.0688593
-0.0635914
-0.0579464
-0.0518808
-0.0455748
-0.0389087
-0.032164
-0.0250817
-0.0181271
-0.0107887
-0.00387347
0.321186
0.318115
0.311659
0.301802
0.288814
0.273041
0.254865
0.234715
0.213075
0.190453
0.167348
0.144222
0.121475
0.09943
0.0783324
0.0583568
0.0396191
0.0221902
0.00610762
-0.00861602
-0.0219861
-0.0340215
-0.0447499
-0.0542056
-0.0624267
-0.0694555
-0.0753347
-0.0801108
-0.0838281
-0.0865356
-0.0882774
-0.0891048
-0.0890603
-0.0881989
-0.0865602
-0.0842057
-0.0811683
-0.0775198
-0.0732819
-0.0685443
-0.0633073
-0.0576918
-0.0516578
-0.0453808
-0.0387472
-0.03203
-0.0249811
-0.0180511
-0.0107486
-0.00385304
0.320915
0.317848
0.31139
0.301529
0.288538
0.272762
0.254581
0.234425
0.212779
0.190149
0.167035
0.1439
0.121142
0.0990858
0.0779767
0.0579895
0.0392407
0.0218022
0.00571239
-0.009015
-0.022384
-0.0344123
-0.045126
-0.0545584
-0.0627463
-0.0697315
-0.0755563
-0.0802673
-0.0839097
-0.0865338
-0.0881857
-0.0889193
-0.0887797
-0.087825
-0.0860989
-0.0836668
-0.0805632
-0.0768637
-0.0725905
-0.0678369
-0.0626012
-0.0570072
-0.0510106
-0.0447894
-0.0382231
-0.0315881
-0.0246272
-0.0177957
-0.0105903
-0.00379894
0.323125
0.319992
0.313389
0.30331
0.29004
0.273939
0.255402
0.234881
0.212878
0.189922
0.166528
0.143168
0.120244
0.098076
0.0769017
0.0568854
0.038134
0.0207113
0.00464961
-0.0100419
-0.0233706
-0.0353565
-0.0460272
-0.0554171
-0.0635633
-0.070508
-0.0762934
-0.0809664
-0.0845718
-0.0871602
-0.0887771
-0.0894769
-0.0893039
-0.088316
-0.0865574
-0.0840936
-0.0809582
-0.0772278
-0.0729231
-0.0681393
-0.0628725
-0.0572491
-0.0512214
-0.0449721
-0.0383748
-0.0317137
-0.0247211
-0.0178665
-0.0106276
-0.00381784
0.327601
0.324328
0.31743
0.306908
0.293069
0.276303
0.25704
0.23577
0.213042
0.189423
0.165462
0.141651
0.118396
0.0960106
0.0747122
0.054644
0.0358929
0.0185063
0.00250458
-0.0121123
-0.0253582
-0.0372578
-0.0478414
-0.0571451
-0.0652072
-0.0720701
-0.0777763
-0.0823728
-0.0859039
-0.0884203
-0.0899671
-0.0905984
-0.0903581
-0.0893038
-0.0874801
-0.0849525
-0.0817533
-0.0779601
-0.0735927
-0.0687473
-0.0634187
-0.057735
-0.0516465
-0.0453385
-0.0386815
-0.0319638
-0.0249129
-0.0180043
-0.0107082
-0.00384732
0.334442
0.330951
0.323597
0.312389
0.297668
0.27987
0.259479
0.23705
0.213198
0.188558
0.16373
0.139239
0.115497
0.0927993
0.0713317
0.0512021
0.0324654
0.0151446
-0.000758192
-0.0152561
-0.0283726
-0.0401388
-0.0505889
-0.0597613
-0.0676954
-0.0744343
-0.0800206
-0.0845011
-0.08792
-0.0903275
-0.0917681
-0.0922958
-0.0919532
-0.0907993
-0.0888772
-0.0862527
-0.082957
-0.0790687
-0.0746063
-0.0696676
-0.0642453
-0.0584704
-0.0522896
-0.0458927
-0.0391452
-0.0323416
-0.0252027
-0.0182118
-0.0108306
-0.0038906
0.343804
0.340011
0.332024
0.31986
0.303908
0.284667
0.262697
0.238645
0.213227
0.187172
0.16116
0.135758
0.111384
0.0882989
0.06664
0.0464603
0.0277697
0.0105581
-0.00519576
-0.0195221
-0.0324565
-0.0440377
-0.0543046
-0.0632978
-0.071058
-0.0776289
-0.083053
-0.0873769
-0.0906442
-0.0929048
-0.094202
-0.09459
-0.0941088
-0.0928212
-0.0907661
-0.0880105
-0.0845842
-0.0805673
-0.0759763
-0.0709116
-0.0653624
-0.059464
-0.0531582
-0.0466411
-0.0397709
-0.0328514
-0.0255932
-0.0184916
-0.0109951
-0.00394947
0.355906
0.351715
0.342893
0.329467
0.311885
0.290726
0.266655
0.240443
0.212947
0.185035
0.157494
0.130952
0.10582
0.0823073
0.0604693
0.0402811
0.0216927
0.00465285
-0.0108876
-0.0249789
-0.0376704
-0.0490092
-0.0590385
-0.0678014
-0.0753389
-0.0816955
-0.086913
-0.0910378
-0.0941123
-0.0961862
-0.0973013
-0.0975119
-0.0968578
-0.0953984
-0.0931728
-0.0902497
-0.0866568
-0.0824762
-0.0777212
-0.0724959
-0.0667849
-0.0607291
-0.0542636
-0.0475932
-0.0405663
-0.0334992
-0.0260883
-0.0188466
-0.011203
-0.00402551
0.371038
0.366336
0.356448
0.341405
0.321724
0.298087
0.27129
0.242276
0.212096
0.181813
0.152367
0.12446
0.0984832
0.0745512
0.0525963
0.0324832
0.0140854
-0.00269564
-0.0179396
-0.0317189
-0.0440971
-0.0551292
-0.0648614
-0.0733382
-0.0806008
-0.0866936
-0.0916572
-0.0955377
-0.0983757
-0.100221
-0.101112
-0.101105
-0.100239
-0.0985691
-0.0961339
-0.0930042
-0.0892061
-0.0848241
-0.0798673
-0.0744442
-0.0685337
-0.0622842
-0.0556217
-0.0487627
-0.0415422
-0.0342938
-0.026694
-0.0192814
-0.0114561
-0.00412082
0.389565
0.384224
0.373002
0.355924
0.333587
0.306793
0.276504
0.243895
0.21029
0.177025
0.145261
0.115786
0.0889383
0.0646729
0.0427335
0.0228337
0.00475566
-0.0116489
-0.026491
-0.0398653
-0.0518487
-0.0625014
-0.0718706
-0.0800004
-0.0869311
-0.0927062
-0.0973649
-0.100952
-0.103506
-0.105076
-0.1057
-0.105431
-0.104306
-0.102386
-0.0996992
-0.0963207
-0.0922751
-0.0876504
-0.0824503
-0.0767888
-0.0706379
-0.0641548
-0.0572547
-0.0501684
-0.0427138
-0.0352473
-0.027419
-0.0198022
-0.011757
-0.00423794
0.411948
0.405816
0.39295
0.373339
0.347677
0.316888
0.282145
0.244937
0.206967
0.169975
0.135436
0.104243
0.0766069
0.0522128
0.0305188
0.0110402
-0.00653986
-0.0224142
-0.0367226
-0.0495807
-0.061075
-0.0712663
-0.0801985
-0.0879132
-0.0944487
-0.0998464
-0.104143
-0.107382
-0.1096
-0.110843
-0.111149
-0.11057
-0.109139
-0.106918
-0.103933
-0.100259
-0.0959191
-0.0910055
-0.0855161
-0.0795711
-0.0731344
-0.0663735
-0.0591911
-0.0518345
-0.0441013
-0.0363756
-0.0282749
-0.0204172
-0.01211
-0.00437923
0.438752
0.431653
0.416785
0.394049
0.364248
0.328408
0.287978
0.244867
0.201306
0.159648
0.121835
0.088871
0.0607132
0.036581
0.0155013
-0.00325854
-0.0201036
-0.0352523
-0.0488658
-0.0610762
-0.0719724
-0.0816079
-0.0900183
-0.0972401
-0.103308
-0.108259
-0.112128
-0.114956
-0.116776
-0.117635
-0.117566
-0.116621
-0.114829
-0.11225
-0.108909
-0.104887
-0.100201
-0.0949468
-0.089117
-0.0828378
-0.0760654
-0.0689774
-0.0614636
-0.0537884
-0.0457286