/*--------------------------------*- C++ -*----------------------------------*\
  =========                 |
  \\      /  F ield         | OpenFOAM: The Open Source CFD Toolbox
   \\    /   O peration     | Website:  https://openfoam.org
    \\  /    A nd           | Version:  8
     \\/     M anipulation  |
\*---------------------------------------------------------------------------*/
FoamFile
{
    version     2.0;
    format      ascii;
    class       volScalarField;
    location    "17";
    object      p;
}
// * * * * * * * * * * * * * * * * * * * * * * * * * * * * * * * * * * * * * //

dimensions      [0 2 -2 0 0 0 0];

internalField   nonuniform List<scalar> 
2844
(
-0.0130118
-0.0339419
-0.0642126
-0.10323
-0.138125
-0.168585
-0.190506
-0.207579
-0.218727
-0.222679
-0.219556
-0.206298
-0.187472
-0.164131
-0.136065
-0.106217
-0.0776725
-0.0515023
-0.0281006
-0.00900364
-0.00143021
-0.0241048
-0.0570739
-0.101389
-0.139498
-0.170363
-0.192196
-0.211152
-0.221579
-0.225993
-0.223385
-0.208038
-0.189359
-0.165902
-0.136702
-0.104917
-0.0762828
-0.0512209
-0.0276168
-0.00888267
0.0214845
-0.0165256
-0.0584777
-0.118256
-0.160309
-0.186197
-0.199616
-0.221947
-0.234336
-0.242599
-0.240188
-0.218435
-0.203765
-0.180589
-0.146166
-0.113381
-0.0827
-0.0520984
-0.0277234
-0.00908229
0.0628654
0.0206761
-0.0343954
-0.116239
-0.171706
-0.195424
-0.209289
-0.238452
-0.241922
-0.255905
-0.255352
-0.22663
-0.213949
-0.186147
-0.149723
-0.112379
-0.0786967
-0.0515101
-0.0286008
-0.0103363
0.123607
0.0410181
-0.0439851
-0.176104
-0.221443
-0.213301
-0.223097
-0.259656
-0.26211
-0.303044
-0.292021
-0.245143
-0.260022
-0.222102
-0.170018
-0.128232
-0.0900972
-0.0516148
-0.0269116
-0.0102073
0.213033
0.128977
-0.00696336
-0.191844
-0.308943
-0.255357
-0.261132
-0.299212
-0.272801
-0.339915
-0.329962
-0.27768
-0.307897
-0.244042
-0.176632
-0.132407
-0.093499
-0.0509334
-0.0292352
-0.0129063
0.38189
0.175391
-0.108543
-0.28167
-0.40056
-0.223207
-0.354442
-0.32635
-0.309604
-0.500957
-0.371121
-0.326084
-0.460042
-0.308732
-0.203493
-0.156313
-0.0916238
-0.0386101
-0.0370684
-0.0177285
0.526915
0.409363
-0.00854165
-0.631658
-0.597489
-0.268056
-0.338058
-0.413153
-0.312363
-0.544187
-0.382905
-0.375983
-0.552209
-0.376151
-0.261983
-0.214307
-0.107456
-0.0243575
-0.03888
-0.013642
0.959086
0.62841
0.230129
-0.322974
-0.350093
-0.356867
-0.611167
-0.380523
-0.390016
-0.623252
-0.328215
-0.190707
-0.217404
-0.0619096
0.00216252
-0.0411315
0.0227707
1.37252
0.34788
1.50453
-0.346936
-0.531549
-0.4237
-0.55668
-0.435088
-0.456791
-0.471093
-0.324301
-0.217396
-0.156622
-0.0476525
0.0124124
-0.0411105
0.0332697
1.02095
0.916496
-0.458842
-0.47058
-0.479245
-0.454323
-0.512186
-0.588252
-0.351743
-0.288908
-0.20245
-0.02729
-0.0560934
0.0086594
-0.00829921
0.0218999
0.669187
0.587372
1.02185
-0.502191
-0.665993
-0.598676
-0.464151
-0.582124
-0.559768
-0.270407
-0.307503
-0.132669
0.119181
-0.0720893
0.0719164
0.0607593
0.00445376
0.373598
0.119315
-0.245185
-0.512865
-0.51943
-0.543693
-0.548776
-0.433638
-0.468346
-0.575423
-0.279867
-0.255554
-0.153152
0.0819274
-0.0397305
0.0349282
0.0333288
-0.00402081
0.170804
-0.0721225
-0.112967
-0.57586
-0.824633
-0.465387
-0.475129
-0.546892
-0.511817
-0.407873
-0.409961
-0.424784
-0.268553
-0.220978
-0.161121
-0.0346911
-0.0613266
-0.00880806
0.014158
0.00189552
0.0848122
-0.00605347
-0.0638478
-0.316974
-0.518687
-0.369742
-0.362205
-0.394082
-0.399722
-0.37261
-0.346829
-0.34271
-0.272558
-0.212401
-0.162801
-0.0676585
-0.0568959
-0.0300586
0.00185949
0.00419655
-0.0238463
-0.0852834
-0.12902
-0.272304
-0.331023
-0.321979
-0.329706
-0.364478
-0.372667
-0.352283
-0.321393
-0.305368
-0.261625
-0.206755
-0.15368
-0.0908668
-0.0682319
-0.0432513
-0.0192834
-0.00467748
-0.0588794
-0.0912118
-0.134071
-0.224141
-0.293075
-0.297898
-0.308204
-0.322682
-0.327879
-0.31829
-0.292401
-0.272005
-0.238607
-0.189207
-0.149373
-0.106075
-0.0739352
-0.0484631
-0.0234048
-0.00561519
-0.0993511
-0.12853
-0.163677
-0.2207
-0.270878
-0.285357
-0.297332
-0.309587
-0.313862
-0.304907
-0.282721
-0.261734
-0.232339
-0.192426
-0.152674
-0.113642
-0.0808686
-0.0539623
-0.0303368
-0.00947815
-0.117974
-0.136376
-0.165888
-0.208315
-0.24757
-0.269686
-0.285918
-0.295996
-0.297009
-0.289521
-0.271303
-0.247683
-0.219583
-0.184519
-0.148991
-0.114603
-0.0831725
-0.0561024
-0.0314899
-0.00952436
-0.127464
-0.14496
-0.172597
-0.208013
-0.244152
-0.267168
-0.282916
-0.292223
-0.292735
-0.28561
-0.268566
-0.245688
-0.218411
-0.185199
-0.150225
-0.116764
-0.085551
-0.0576803
-0.0330773
-0.0106159
-0.0130101
-0.0339428
-0.0642175
-0.103232
-0.138128
-0.16858
-0.190495
-0.207577
-0.218734
-0.222685
-0.219621
-0.206308
-0.187477
-0.16414
-0.136068
-0.106218
-0.0776702
-0.0514998
-0.0281024
-0.00900533
-0.00142604
-0.0241063
-0.0570975
-0.101385
-0.139503
-0.170361
-0.19219
-0.211143
-0.221575
-0.226024
-0.22332
-0.208038
-0.189396
-0.165913
-0.136734
-0.104959
-0.0762879
-0.0512098
-0.0276062
-0.00888302
0.0214812
-0.0165356
-0.0585848
-0.118271
-0.160286
-0.186093
-0.199561
-0.221986
-0.234462
-0.242593
-0.240455
-0.218599
-0.203807
-0.180735
-0.146186
-0.113377
-0.0826491
-0.052048
-0.0277357
-0.00910518
0.0628804
0.0206331
-0.0346781
-0.116087
-0.172069
-0.195548
-0.208977
-0.238438
-0.242164
-0.256831
-0.255047
-0.226846
-0.214575
-0.186449
-0.149619
-0.11246
-0.0787975
-0.0515275
-0.0286836
-0.010387
0.123572
0.0404903
-0.0435604
-0.176793
-0.224718
-0.213297
-0.221574
-0.259526
-0.262637
-0.303636
-0.293715
-0.245719
-0.260398
-0.222805
-0.170394
-0.12763
-0.0892041
-0.0513653
-0.0273427
-0.010209
0.211254
0.126867
-0.00438024
-0.180846
-0.316004
-0.265939
-0.26271
-0.301346
-0.274453
-0.339857
-0.329517
-0.27626
-0.305173
-0.24353
-0.175227
-0.131239
-0.0946512
-0.0524364
-0.029761
-0.0127761
0.381615
0.175283
-0.117243
-0.296233
-0.391993
-0.231221
-0.353912
-0.339738
-0.308427
-0.490271
-0.370526
-0.320672
-0.457883
-0.309752
-0.203649
-0.155899
-0.0920683
-0.0397601
-0.0372173
-0.0181579
0.530028
0.389105
0.0135087
-0.689607
-0.64631
-0.270324
-0.339503
-0.417906
-0.313797
-0.54577
-0.383407
-0.370953
-0.556631
-0.381737
-0.262424
-0.215374
-0.111696
-0.02576
-0.0430012
-0.0170237
0.943651
0.566163
0.317663
-0.333589
-0.348415
-0.346194
-0.614898
-0.384656
-0.387467
-0.62481
-0.329377
-0.190655
-0.223599
-0.066492
0.00402234
-0.0451864
0.0175906
1.36875
0.47362
1.65671
-0.355568
-0.536587
-0.430377
-0.558311
-0.437936
-0.453865
-0.467391
-0.323042
-0.214679
-0.158166
-0.0474796
0.0139251
-0.0464433
0.0284688
0.89926
0.823682
-0.459003
-0.47131
-0.480517
-0.454473
-0.511128
-0.588854
-0.350649
-0.287187
-0.208267
-0.031477
-0.0581423
0.00775737
-0.00782835
0.0225888
0.687063
0.575976
0.777425
-0.507037
-0.670427
-0.604194
-0.461221
-0.581014
-0.562163
-0.270723
-0.305037
-0.135269
0.114104
-0.0726985
0.0689542
0.0614503
0.00591987
0.356743
0.0635391
-0.248129
-0.504762
-0.527404
-0.549683
-0.549336
-0.434549
-0.469857
-0.577833
-0.282675
-0.253334
-0.151128
0.077862
-0.0421204
0.0343022
0.03393
-0.00228856
0.166146
-0.0767988
-0.146407
-0.613975
-0.862686
-0.433838
-0.472608
-0.54278
-0.511834
-0.409639
-0.407765
-0.422182
-0.269653
-0.223353
-0.16118
-0.0318673
-0.0621763
-0.0105579
0.0132241
0.00236617
0.0815269
-0.0120236
-0.0740783
-0.320872
-0.528075
-0.371073
-0.364496
-0.394619
-0.39866
-0.373384
-0.346757
-0.343146
-0.275497
-0.215345
-0.167496
-0.0702163
-0.0571008
-0.0307044
0.00153089
0.00367499
-0.0239454
-0.0890605
-0.13188
-0.272919
-0.330578
-0.321143
-0.330679
-0.365605
-0.372276
-0.3521
-0.322524
-0.307628
-0.264141
-0.209477
-0.154561
-0.09122
-0.0685586
-0.0435011
-0.0194222
-0.00463198
-0.058807
-0.0917115
-0.1346
-0.224446
-0.29322
-0.29849
-0.308672
-0.322162
-0.327379
-0.318194
-0.293055
-0.27276
-0.239483
-0.189418
-0.149789
-0.106266
-0.074354
-0.048612
-0.0234214
-0.00562636
-0.0993169
-0.12872
-0.163844
-0.220766
-0.271001
-0.285271
-0.297207
-0.309502
-0.313811
-0.304986
-0.28295
-0.261851
-0.232394
-0.192457
-0.152619
-0.113642
-0.0808839
-0.0540015
-0.0303394
-0.00947634
-0.117967
-0.136388
-0.165928
-0.208348
-0.24755
-0.269634
-0.285834
-0.295945
-0.29697
-0.28952
-0.271326
-0.247757
-0.219613
-0.184512
-0.148981
-0.114583
-0.0831688
-0.0561056
-0.031496
-0.00952899
-0.12746
-0.144966
-0.172614
-0.208021
-0.244126
-0.267131
-0.282893
-0.292214
-0.292734
-0.285612
-0.268576
-0.245698
-0.218413
-0.185198
-0.150222
-0.116762
-0.0855505
-0.0576836
-0.0330796
-0.010616
-0.0130114
-0.0339507
-0.0642194
-0.103212
-0.138119
-0.168573
-0.190494
-0.207576
-0.218733
-0.222676
-0.219638
-0.206315
-0.187481
-0.164153
-0.136074
-0.106219
-0.0776693
-0.051498
-0.0281014
-0.00900608
-0.00142274
-0.0241078
-0.0571174
-0.101369
-0.139465
-0.170334
-0.192193
-0.211136
-0.221578
-0.226009
-0.223237
-0.208034
-0.189443
-0.165936
-0.136792
-0.105045
-0.076292
-0.0511983
-0.0275768
-0.00886267
0.0214795
-0.0165561
-0.0587163
-0.118245
-0.16006
-0.185869
-0.199503
-0.22203
-0.234521
-0.242474
-0.24027
-0.218621
-0.203784
-0.180814
-0.146194
-0.113301
-0.0825802
-0.0519977
-0.0277221
-0.00912855
0.0628927
0.0207149
-0.0351575
-0.117155
-0.171636
-0.194478
-0.208365
-0.238216
-0.242581
-0.25673
-0.254493
-0.225967
-0.214992
-0.186715
-0.149503
-0.112361
-0.0788111
-0.0516298
-0.0287953
-0.0104359
0.123507
0.0413356
-0.0450591
-0.179612
-0.225875
-0.212051
-0.219493
-0.259239
-0.262527
-0.303872
-0.294064
-0.244823
-0.25777
-0.222862
-0.170239
-0.127208
-0.0886103
-0.0511056
-0.0275741
-0.0102045
0.211029
0.129992
-0.00921772
-0.200712
-0.314695
-0.26278
-0.259844
-0.299142
-0.273912
-0.339209
-0.328643
-0.275117
-0.303243
-0.240834
-0.172512
-0.128358
-0.0934027
-0.0536145
-0.0286048
-0.0120647
0.383137
0.186048
-0.0900411
-0.295143
-0.394476
-0.221529
-0.351372
-0.339795
-0.299242
-0.481571
-0.371137
-0.317997
-0.454074
-0.307578
-0.20265
-0.154368
-0.0890829
-0.0366925
-0.0330518
-0.0179974
0.536729
0.412406
0.0252844
-0.720253
-0.664753
-0.267469
-0.320299
-0.405572
-0.310471
-0.550492
-0.384141
-0.366403
-0.555656
-0.384165
-0.261986
-0.212826
-0.111321
-0.0258888
-0.0405788
-0.0157172
0.952776
0.567012
0.295689
-0.34213
-0.344048
-0.340522
-0.610011
-0.388768
-0.384583
-0.6211
-0.324729
-0.188012
-0.225958
-0.0674334
0.00641933
-0.0483136
0.0161562
1.35303
0.46502
1.01986
-0.36292
-0.533716
-0.428035
-0.557799
-0.440891
-0.452108
-0.464812
-0.322036
-0.211569
-0.156621
-0.0466496
0.0166012
-0.0468639
0.0281495
0.978014
0.95526
-0.459706
-0.479239
-0.488836
-0.449574
-0.503426
-0.592101
-0.351193
-0.28496
-0.20757
-0.0324243
-0.057203
0.00981657
-0.00751623
0.0231298
0.714334
0.55982
0.661366
-0.506647
-0.662789
-0.606517
-0.457114
-0.57617
-0.566779
-0.272926
-0.301678
-0.13554
0.112883
-0.0707642
0.0684008
0.0620274
0.00724382
0.372716
0.115723
-0.237886
-0.430413
-0.50646
-0.556239
-0.552156
-0.432182
-0.460828
-0.575706
-0.284594
-0.249764
-0.144103
0.0775537
-0.0433215
0.0345408
0.0350378
-0.00125141
0.168395
-0.0864481
-0.15564
-0.614209
-0.890287
-0.410792
-0.461352
-0.538195
-0.512424
-0.411131
-0.406586
-0.420389
-0.269867
-0.223636
-0.15958
-0.0284745
-0.060493
-0.0104718
0.0141487
0.00312651
0.0826272
-0.0135226
-0.0896431
-0.330232
-0.51308
-0.368978
-0.359622
-0.392923
-0.396733
-0.371744
-0.345212
-0.342546
-0.275095
-0.214509
-0.164559
-0.0659109
-0.054639
-0.0285341
0.00190497
0.00349661
-0.0240093
-0.0908532
-0.136051
-0.268084
-0.326683
-0.316253
-0.330694
-0.364635
-0.370757
-0.351021
-0.322215
-0.307647
-0.264917
-0.20717
-0.152356
-0.0904309
-0.0682986
-0.0435573
-0.0191984
-0.00447363
-0.0587108
-0.0918904
-0.135081
-0.222413
-0.29112
-0.298079
-0.308222
-0.321498
-0.326823
-0.317429
-0.293163
-0.273163
-0.239433
-0.188786
-0.148451
-0.10614
-0.0741698
-0.0484711
-0.0233458
-0.00560339
-0.0992818
-0.128848
-0.163831
-0.220444
-0.270786
-0.284991
-0.296936
-0.309344
-0.313699
-0.304941
-0.283002
-0.261813
-0.232184
-0.192283
-0.152519
-0.113614
-0.0808472
-0.0540165
-0.03029
-0.00944258
-0.11796
-0.136403
-0.165947
-0.20832
-0.247481
-0.269527
-0.28574
-0.295873
-0.296899
-0.28948
-0.271339
-0.247808
-0.219672
-0.184516
-0.148948
-0.114574
-0.0831577
-0.0560906
-0.0315052
-0.00953401
-0.127457
-0.144974
-0.172625
-0.208014
-0.244081
-0.267082
-0.282871
-0.292204
-0.292727
-0.285612
-0.268581
-0.245701
-0.218412
-0.185194
-0.150215
-0.11676
-0.0855514
-0.0576832
-0.0330802
-0.0106153
-0.365722
0.0751344
-0.823728
-0.00752147
-0.343995
0.0809751
-0.819045
-0.757078
-0.684155
-0.768237
-0.21355
-0.637805
-0.221802
-0.308635
-0.233237
-0.429603
-0.276986
-0.311058
-0.238649
-0.4275
0.440205
0.50598
0.717396
0.59055
0.353145
0.46263
0.715048
0.752875
0.318613
0.677662
-0.336364
-0.345086
-0.336533
-0.346876
-0.331897
-0.344058
-0.350487
-0.326768
-0.336806
-0.345908
-0.354441
1.22944
0.878453
1.23429
0.303429
1.25062
0.854785
1.22857
1.61102
-0.332047
-0.336897
-0.343176
-0.408481
-0.471176
-0.353467
-0.338594
-0.407934
-0.473501
1.38007
0.883391
1.12828
0.839437
1.33221
0.834882
1.22269
1.31687
1.3728
-0.47341
-0.472241
-0.483837
-0.458944
-0.481873
-0.458964
-0.483127
-0.459432
-0.481235
1.04645
0.428232
0.272362
0.576566
1.04746
0.389662
0.27924
-0.185114
0.842135
-0.159514
-0.528944
-0.509782
-0.536822
-0.51761
-0.582121
-0.491597
-0.552049
-0.505081
-0.582724
-0.491645
-0.549971
-1.19
-0.170952
-0.526783
-0.260574
-1.23764
-0.181614
-0.543143
-0.827495
-0.931573
-0.853358
-0.952218
-0.841762
-0.435668
-0.858965
-0.461576
-0.530781
-0.470958
-0.409434
-0.511312
-0.530091
-0.501819
-0.406134
-0.328221
0.0569924
-0.843182
-0.003499
-0.346241
0.0407412
-0.835176
-0.770528
-0.7072
-0.774842
-0.231259
-0.660073
-0.279348
-0.306717
-0.240621
-0.430668
-0.269494
-0.302891
-0.249795
-0.428608
0.464867
0.559322
0.748553
0.555095
0.44485
0.523219
0.737711
0.671108
0.300847
0.723748
-0.336935
-0.348601
-0.339789
-0.349934
-0.340814
-0.34655
-0.354927
-0.343068
-0.343915
-0.344893
-0.352637
1.26905
0.841124
1.21082
0.438083
1.0489
0.912877
1.15048
1.17243
-0.339648
-0.346998
-0.339266
-0.407884
-0.47651
-0.362691
-0.329374
-0.409289
-0.472483
1.36136
0.808634
1.34253
0.883274
1.40654
0.775048
1.47179
1.55756
1.65324
-0.471651
-0.470785
-0.481832
-0.459923
-0.487095
-0.459549
-0.479407
-0.461153
-0.488582
1.0926
0.400246
0.322792
0.594924
1.13624
0.435628
0.318681
-0.143622
0.681387
-0.150292
-0.539985
-0.515605
-0.547272
-0.506602
-0.58514
-0.490075
-0.5472
-0.507424
-0.582075
-0.487632
-0.541402
-1.25674
-0.184463
-0.555061
-0.259961
-1.28538
-0.204043
-0.597843
-0.867441
-0.961236
-0.900818
-0.954063
-0.861962
-0.474744
-0.838814
-0.488159
-0.535576
-0.526428
-0.410943
-0.44893
-0.528469
-0.536869
-0.395331
-0.344139
0.0257794
-0.813968
0.0474556
-0.313084
0.0260162
-0.771524
-0.780617
-0.728473
-0.781509
-0.294639
-0.654402
-0.306894
-0.29729
-0.250994
-0.4396
-0.255483
-0.285577
-0.223318
-0.429306
0.505342
0.531373
0.70471
0.596255
0.51907
0.551612
0.699162
0.717283
0.254144
0.793622
-0.341273
-0.351349
-0.33627
-0.352198
-0.339258
-0.346937
-0.349524
-0.336553
-0.336488
-0.34734
-0.347433
0.971579
0.865073
1.16661
0.508573
0.952767
0.865773
1.22041
1.07629
-0.3491
-0.35236
-0.328093
-0.410375
-0.468808
-0.363803
-0.326188
-0.412827
-0.466556
1.40099
0.712765
1.4741
0.94958
1.41088
0.700011
1.45568
1.61019
1.53474
-0.471484
-0.474238
-0.475674
-0.461773
-0.491749
-0.460062
-0.473711
-0.463542
-0.492962
1.07387
0.494979
0.266317
0.602105
1.04982
0.533975
0.333312
-0.17675
0.624957
-0.257592
-0.54857
-0.502443
-0.549529
-0.496551
-0.58207
-0.481517
-0.53565
-0.506467
-0.579972
-0.479875
-0.532359
-1.29088
-0.195348
-0.629128
-0.219224
-1.32989
-0.161582
-0.635729
-0.912907
-0.947823
-0.90865
-0.915973
-0.827601
-0.488796
-0.780284
-0.471813
-0.517479
-0.523199
-0.381306
-0.404311
-0.511828
-0.490489
-0.364818
-0.385198
-0.409578
-0.61406
-0.295894
-0.389181
-0.44547
-0.618589
-0.282038
-0.625409
-0.467214
-0.396536
-0.300746
-0.624849
-0.465566
-1.03712
-0.760482
-0.789642
-0.678929
-0.785894
-0.822044
-1.0193
-0.611416
-0.472649
-0.955365
-0.615968
-0.486305
-0.973698
-0.603714
-0.0981823
0.00432119
0.433359
0.22994
-0.0140319
0.394901
-0.100636
-0.237452
-0.238143
1.50448
-0.366011
-0.337831
-0.319853
-0.348522
-0.339401
-0.319963
-0.3642
-0.440016
-0.46952
-0.453713
-0.458859
-0.469551
-0.453768
-0.439773
0.360531
0.974526
0.34765
-1.72319
-1.35035
-1.35244
-1.72192
-0.472051
-0.447172
-0.473557
-0.512303
-0.450626
-0.483815
-0.465729
-0.809489
-0.534198
-0.630406
-0.585353
-0.81812
-0.517935
-0.634601
-0.703468
-0.623581
-0.567796
-0.838905
-0.701322
-0.621651
-0.569382
-0.388598
-0.436825
-0.608885
-0.294358
-0.390971
-0.435916
-0.613314
-0.27876
-0.624295
-0.460277
-0.389023
-0.273012
-0.62618
-0.466029
-1.08584
-0.79448
-0.790981
-0.686549
-1.06747
-0.793757
-0.799182
-0.682872
-0.513731
-1.03488
-0.652604
-0.666408
-0.521429
-1.05316
0.0305729
-0.00673024
0.382841
0.278913
0.0210066
0.00870051
0.360174
-0.259813
-0.275671
1.63244
-0.379068
-0.341815
-0.324278
-0.358744
-0.375115
-0.341636
-0.327847
-0.443033
-0.470896
-0.453816
-0.459111
-0.442176
-0.471368
-0.453757
0.299784
0.728795
0.290092
-1.69014
-1.34827
-1.6926
-1.34829
-0.476551
-0.446172
-0.520593
-0.490598
-0.488778
-0.431905
-0.496127
-0.836978
-0.543649
-0.639269
-0.617233
-0.835754
-0.526848
-0.633803
-0.698272
-0.622074
-0.567915
-0.879347
-0.685538
-0.611043
-0.560711
-0.392711
-0.425788
-0.603179
-0.300598
-0.39588
-0.421245
-0.600354
-0.27681
-0.628842
-0.468885
-0.398204
-0.273704
-0.633751
-0.476662
-1.12254
-0.824649
-0.827393
-0.743821
-1.11928
-0.837664
-0.853725
-0.700206
-0.52963
-1.08288
-0.663121
-0.705276
-0.526362
-1.07795
0.0876707
0.0692449
0.480891
0.269164
0.0813533
0.0671882
0.493076
-0.31407
-0.316768
0.989854
-0.384543
-0.330875
-0.341389
-0.363961
-0.384298
-0.328149
-0.344649
-0.445592
-0.471657
-0.453322
-0.459951
-0.444975
-0.471317
-0.453081
0.298225
0.641292
0.324875
-1.73975
-1.36938
-1.72995
-1.368
-0.417657
-0.404498
-0.409567
-0.417087
-0.429128
-0.400901
-0.39975
-0.83401
-0.545937
-0.63855
-0.596995
-0.824192
-0.542903
-0.629216
-0.657288
-0.61956
-0.583248
-0.890396
-0.640671
-0.611739
-0.563331
-0.381262
-0.644509
-0.403882
-0.817431
-0.643973
-0.43756
-0.371771
-0.359649
-0.8016
-0.605066
-0.428043
-0.627275
-0.427921
-0.348231
-1.13364
-0.860159
-1.13021
-0.770825
-0.866659
-1.14599
-1.1178
-1.43408
-1.0184
-1.0472
-1.42729
-1.02761
-0.685717
-0.78697
-0.78311
-0.783906
-0.793753
-1.04238
-1.14387
-0.765958
-0.843119
-1.17295
-0.848015
-1.16022
-1.14963
-1.46364
-1.09492
-1.07706
-1.47939
-0.272254
-0.365785
-0.143999
-0.215507
-0.372283
-0.13819
-0.27114
-0.31601
-0.0922969
-0.0905549
-0.309388
-0.626616
-0.625605
-0.506075
-1.01548
-0.493947
-0.992444
-0.646459
-0.285856
-0.215389
-0.369923
-0.151043
-0.361995
-0.146839
-0.310459
-0.323734
-0.0918811
-0.0882626
-0.337611
-0.275014
-0.205354
-0.270266
-0.234942
-0.203004
-0.270712
-0.277144
-0.267309
-0.237125
-0.185393
-0.273292
-0.194821
-0.272052
-0.262153
-0.348058
-0.316419
0.661302
0.676311
0.552836
-0.0298136
0.25729
-0.0181582
0.403917
-0.0198862
0.365751
0.0112818
-0.286484
-0.299733
0.684976
0.499097
0.509581
-0.338533
-0.336219
-0.335969
-0.336356
-0.335702
-0.336396
-0.339066
-0.343916
-0.345214
-0.344306
-0.248259
-0.241371
-0.337423
-0.336035
-0.339722
-0.338522
-0.336941
-0.336968
-0.336066
-0.346727
-0.346287
-0.345699
0.998382
0.743535
1.28459
1.19568
0.670129
1.27545
1.03041
1.1557
1.32137
1.09828
1.23364
1.32043
1.06731
1.17758
1.0213
1.22619
0.822709
1.33322
0.759777
1.29602
1.05431
1.10514
1.22805
1.28947
0.995973
1.30412
1.03918
1.03719
1.51146
-0.33279
-0.334491
-0.419641
-0.377401
-0.43511
-0.408261
-0.377325
-0.434645
-0.418774
-0.368321
-0.350151
-0.342209
-0.322023
-0.340424
-0.320533
-0.371758
-0.421576
-0.408115
-0.377739
-0.434091
-0.377386
-0.435027
-0.423417
1.0491
1.28593
1.0907
1.34803
1.21019
1.0724
1.08909
0.893526
1.05678
1.20254
1.09197
1.05204
1.18198
0.962839
1.05296
1.32644
1.14673
1.0666
1.16973
1.05891
1.06172
0.855972
1.13247
1.0985
1.1422
1.05571
1.15294
0.876907
1.22753
1.217
-0.473124
-0.472744
-0.429139
-0.475911
-0.478515
-0.458983
-0.476742
-0.479137
-0.428055
-0.440713
-0.458917
-0.47044
-0.453842
-0.470197
-0.453821
-0.441272
-0.430244
-0.459193
-0.478675
-0.481865
-0.477554
-0.48023
-0.432448
-0.585495
-0.0661812
-0.565081
-0.176095
-0.0723633
-0.571939
-0.597294
-0.79406
-0.80121
0.907454
0.321568
0.331655
-0.575264
-0.17161
-0.0901594
-0.563641
-0.090547
-0.571602
-0.569852
-0.831458
-0.819677
-0.498685
-0.530629
-0.498672
-0.448547
-0.448877
-0.508636
-0.505049
-0.4805
-0.512525
-0.506637
-0.482802
-0.504464
-0.53353
-0.498103
-0.498572
-0.440884
-0.446524
-0.51351
-0.513932
-0.510527
-0.487172
-0.507867
-0.485525
-0.518061
-0.722153
-0.782167
-1.02507
-1.20025
-0.789343
-1.02811
-0.719183
-0.721224
-1.21662
-0.813217
-1.02399
-0.797749
-1.02499
-0.729343
-1.24918
-1.0144
-0.982002
-0.835073
-1.02896
-0.987467
-1.23156
-1.36578
-1.37923
-1.01171
-0.939927
-1.38676
-1.01855
-1.36214
-1.71136
-1.352
-1.35125
-1.70448
-1.26853
-0.845567
-1.06377
-0.99839
-1.04807
-0.994154
-1.28591
-1.36805
-0.946615
-1.40264
-1.03558
-1.39601
-1.02733
-1.36805
-0.399451
-0.301286
-0.318177
-0.37957
-0.745588
-1.19064
-0.675536
-0.849913
-1.20418
-0.683563
-0.732791
-0.235183
-0.29846
-0.512202
-0.439467
-0.303916
-0.512717
-0.215529
-0.436331
-0.38394
-0.347195
-0.484446
-0.766486
-0.856328
-1.24122
-0.704363
-1.22224
-0.693709
-0.792723
-0.277128
-0.447965
-0.336254
-0.512516
-0.318684
-0.508446
-0.32964
-0.481338
-0.512668
-0.452944
-0.518913
-0.454028
-0.498285
-0.489359
-0.351313
-0.588013
-0.443299
-0.855791
-0.349491
-0.59811
-0.462241
-0.349673
-0.849817
-0.628534
-0.471438
-0.615497
-0.470239
-0.34457
-1.13747
-0.839836
-1.18156
-0.769794
-1.14494
-0.835338
-1.18937
-1.47099
-1.09738
-1.48317
-1.09249
-1.10097
-0.695162
-0.814537
-0.819245
-0.804467
-0.808703
-1.11341
-1.1366
-0.772705
-0.843222
-1.20965
-0.840157
-1.19878
-1.14967
-1.45756
-1.09119
-1.08483
-1.47228
-0.361
-0.367274
-0.164972
-0.24756
-0.335349
-0.374408
-0.17897
-0.381788
-0.105424
-0.355964
-0.129259
-0.696055
-0.65763
-0.529185
-1.0795
-0.527885
-1.06927
-0.704011
-0.377434
-0.262686
-0.381046
-0.206326
-0.377315
-0.19296
-0.384927
-0.413551
-0.19463
-0.162466
-0.447576
-0.250523
-0.17161
-0.273929
-0.243083
-0.252894
-0.160739
-0.275775
-0.253126
-0.246247
-0.16358
-0.284143
-0.157108
-0.280017
-0.258759
-0.271762
-0.250724
0.499044
0.667587
0.47786
0.0600003
0.293592
0.0609592
0.446942
0.0328829
0.405194
0.0892277
-0.144915
-0.195096
0.703516
0.4948
0.482843
-0.332468
-0.3437
-0.34104
-0.337149
-0.334273
-0.348229
-0.344938
-0.347617
-0.34863
-0.347892
-0.305778
-0.292498
-0.331901
-0.340312
-0.353336
-0.353465
-0.351847
-0.350663
-0.331657
-0.349814
-0.347032
-0.347833
1.11395
0.860511
1.36755
1.26743
1.09311
0.923249
1.37672
1.08855
1.27441
1.01559
1.17949
1.05629
1.26712
1.0359
1.07276
1.17313
0.842754
1.27444
0.890961
1.35317
0.975066
1.12952
1.16077
1.28441
1.10057
1.2677
1.0649
1.17589
1.50112
-0.342394
-0.34484
-0.429645
-0.378592
-0.434732
-0.407984
-0.427094
-0.380105
-0.434134
-0.381078
-0.360065
-0.33448
-0.337071
-0.337434
-0.331642
-0.38312
-0.432928
-0.408383
-0.385377
-0.434088
-0.382372
-0.434097
-0.435349
1.07921
1.17924
1.08038
1.39051
1.09256
1.20412
1.09225
0.934575
1.14947
1.13712
1.41488
0.911515
1.20088
1.11919
1.05031
1.41007
1.24135
1.08631
1.22605
1.09663
1.00678
0.972683
1.45613
1.3323
1.17377
1.26534
1.14637
1.00001
1.67382
1.68883
-0.470918
-0.470755
-0.437875
-0.479845
-0.483979
-0.460133
-0.435154
-0.48104
-0.485654
-0.443747
-0.459314
-0.472066
-0.453507
-0.471657
-0.453664
-0.444598
-0.442224
-0.460713
-0.482683
-0.488112
-0.482034
-0.487657
-0.444506
-0.555637
-0.0941106
-0.548838
-0.133475
-0.553861
-0.0822197
-0.535094
-0.840875
-0.836627
0.701889
0.286674
0.287079
-0.556338
-0.132635
-0.0619
-0.540696
-0.0573213
-0.525733
-0.5761
-0.824038
-0.819171
-0.497373
-0.543169
-0.497284
-0.431994
-0.421247
-0.525092
-0.512476
-0.486445
-0.514366
-0.521901
-0.514571
-0.483181
-0.545263
-0.497561
-0.497098
-0.401721
-0.410441
-0.527627
-0.509917
-0.516489
-0.469931
-0.515653
-0.476589
-0.528902
-0.732517
-0.82308
-1.01746
-1.27094
-0.72787
-0.844602
-1.01349
-0.743354
-1.27799
-0.885976
-1.01512
-0.87142
-1.01465
-0.745257
-1.31522
-1.077
-1.00621
-0.876156
-1.30234
-1.08733
-1.00784
-1.36346
-1.40881
-1.04932
-0.959793
-1.36636
-1.41187
-1.0509
-1.69504
-1.35955
-1.35249
-1.7077
-1.32388
-0.888009
-1.10623
-1.00244
-1.0966
-1.00653
-1.32949
-1.35969
-0.958341
-1.40615
-1.04168
-1.41104
-1.04915
-1.35634
-0.582975
-0.411973
-0.539161
-0.416308
-0.852174
-1.26105
-0.716659
-0.85489
-0.82473
-1.27446
-0.719313
-0.437169
-0.355027
-0.518753
-0.482217
-0.386978
-0.36864
-0.519663
-0.608406
-0.403128
-0.406689
-0.62122
-0.874387
-0.848268
-1.27019
-0.707683
-1.27695
-0.717488
-0.887385
-0.469806
-0.485804
-0.373195
-0.518111
-0.374095
-0.51884
-0.481856
-0.464877
-0.470065
-0.410341
-0.429001
-0.42085
-0.459389
-0.444419
-0.350896
-0.643938
-0.475971
-0.788976
-0.344424
-0.659686
-0.481315
-0.35868
-0.777798
-0.683348
-0.440637
-0.675528
-0.485278
-0.345213
-1.19378
-0.848476
-1.21897
-0.785307
-1.17026
-0.856872
-1.22323
-1.53771
-1.11251
-1.51057
-1.13128
-1.11412
-0.746695
-0.834865
-0.826191
-0.843336
-0.866522
-1.08582
-1.20742
-0.788499
-0.860734
-1.2041
-0.867532
-1.21864
-1.20524
-1.54755
-1.13004
-1.14281
-1.53508
-0.386552
-0.389946
-0.215928
-0.302041
-0.387153
-0.392818
-0.220649
-0.484261
-0.217644
-0.47525
-0.233122
-0.691132
-0.661552
-0.520406
-1.04859
-0.525581
-1.06589
-0.686027
-0.387968
-0.305917
-0.404759
-0.218769
-0.406924
-0.218037
-0.389182
-0.477682
-0.242379
-0.242859
-0.466096
-0.26341
-0.178323
-0.290852
-0.246585
-0.267436
-0.188402
-0.29006
-0.251575
-0.234862
-0.156164
-0.28407
-0.180354
-0.289318
-0.230268
-0.127781
-0.126202
0.475218
0.731596
0.48854
0.0622868
0.24487
0.0484935
0.519044
0.0558556
0.501709
0.0668099
-0.179169
-0.149901
0.73696
0.578659
0.512287
-0.33558
-0.350899
-0.357447
-0.339861
-0.333352
-0.345777
-0.35566
-0.347207
-0.351098
-0.346938
-0.308537
-0.314782
-0.337955
-0.337714
-0.332257
-0.352829
-0.33751
-0.355338
-0.339215
-0.352461
-0.347773
-0.347904
0.867418
0.795471
1.20903
0.952137
0.885343
0.82192
1.16551
1.18016
1.30931
1.12425
1.19424
1.18757
1.32809
1.14302
0.8264
0.93834
0.793583
1.11507
0.794899
1.12938
0.816967
1.1779
1.22236
1.33676
1.18615
1.34419
1.17837
1.16887
1.01932
-0.350637
-0.351824
-0.437986
-0.388325
-0.43393
-0.411488
-0.436992
-0.390898
-0.433853
-0.384217
-0.363729
-0.324012
-0.34783
-0.325502
-0.346798
-0.383727
-0.438004
-0.41228
-0.393751
-0.433382
-0.392696
-0.433323
-0.438186
0.949857
1.24323
1.0879
1.4005
0.970372
1.26238
1.10214
1.0849
1.40952
1.20554
1.47128
1.04677
1.48446
1.2235
0.956194
1.4174
1.32987
1.14237
1.30607
1.12791
0.965622
1.11333
1.45862
1.56205
1.22006
1.53267
1.21479
1.15041
1.57846
1.55659
-0.47239
-0.473248
-0.451093
-0.483012
-0.488931
-0.462485
-0.449427
-0.48284
-0.488178
-0.445718
-0.460052
-0.4701
-0.45281
-0.470393
-0.452905
-0.445969
-0.454435
-0.462937
-0.482184
-0.487579
-0.482585
-0.487981
-0.454782
-0.646984
-0.0384576
-0.560752
-0.220666
-0.608482
-0.0489924
-0.586948
-0.836008
-0.848298
0.598426
0.426238
0.355378
-0.691761
-0.262409
0.0287043
-0.618713
-0.0224893
-0.6204
-0.683126
-0.856855
-0.856159
-0.49831
-0.549232
-0.498598
-0.395379
-0.391372
-0.528634
-0.516339
-0.463621
-0.499772
-0.528981
-0.51644
-0.45885
-0.54973
-0.499139
-0.499256
-0.388116
-0.389022
-0.527944
-0.497586
-0.515657
-0.454587
-0.516186
-0.455675
-0.527225
-0.771517
-0.901089
-1.02023
-1.29921
-0.754941
-0.908879
-1.01954
-0.783612
-1.32665
-0.861065
-1.01633
-0.902575
-1.01913
-0.774014
-1.3277
-1.11163
-0.994442
-0.925657
-1.33035
-1.12385
-0.982691
-1.35065
-1.39774
-1.03138
-0.938602
-1.35425
-1.38692
-1.01882
-1.72797
-1.33643
-1.35683
-1.71261
-1.32838
-0.929684
-1.12178
-0.954715
-1.13622
-0.973703
-1.32204
-1.3416
-0.930115
-1.35355
-0.997561
-1.37238
-1.01097
-1.32414
-0.629256
-0.408315
-0.627897
-0.412283
-0.888913
-1.25722
-0.694932
-0.811497
-0.891363
-1.2408
-0.679712
-0.488253
-0.370341
-0.518068
-0.485466
-0.485372
-0.367932
-0.517376
-0.630083
-0.410199
-0.41332
-0.620296
-0.882401
-0.796396
-1.20654
-0.653969
-1.22433
-0.666141
-0.877775
-0.492362
-0.479686
-0.364727
-0.515916
-0.364462
-0.521031
-0.495974
-0.409577
-0.408453
-0.397911
-0.395394
-0.398067
-0.396373
-0.406871
)
;

boundaryField
{
    inlet
    {
        type            zeroGradient;
    }
    outlet
    {
        type            fixedValue;
        value           uniform 0;
    }
    up
    {
        type            zeroGradient;
    }
    down
    {
        type            zeroGradient;
    }
    frontAndBack
    {
        type            zeroGradient;
    }
    cylinder
    {
        type            zeroGradient;
    }
}


// ************************************************************************* //
