0 	0 	0 	0
1.57135 	-0.00101689 	0.000973791 	0
3.1427 	-0.00224989 	0.00186775 	0
4.71405 	-0.00379759 	0.00244901 	0
6.28539 	-0.00587045 	0.00261379 	0
7.85674 	-0.00881783 	0.00255336 	0
9.42809 	-0.0133593 	0.00364525 	0
10.9994 	-0.0177221 	0.0135998 	0
12.5708 	0.0140136 	0.0166605 	0
14.1421 	0.5 	0 	0
