/*--------------------------------*- C++ -*----------------------------------*\
  =========                 |
  \\      /  F ield         | OpenFOAM: The Open Source CFD Toolbox
   \\    /   O peration     | Website:  https://openfoam.org
    \\  /    A nd           | Version:  8
     \\/     M anipulation  |
\*---------------------------------------------------------------------------*/
FoamFile
{
    version     2.0;
    format      ascii;
    class       surfaceScalarField;
    location    "47.5";
    object      phi;
}
// * * * * * * * * * * * * * * * * * * * * * * * * * * * * * * * * * * * * * //

dimensions      [0 3 -1 0 0 0 0];

internalField   nonuniform List<scalar> 
208
(
1.81877e-05
-1.81877e-05
3.18095e-05
-1.36218e-05
3.19832e-05
-1.73664e-07
8.46929e-06
2.35139e-05
-6.9915e-05
7.83843e-05
7.14875e-05
-0.000141403
1.94838e-06
-2.01361e-05
-1.29849e-05
1.31146e-06
-5.54387e-05
4.22801e-05
-0.000108749
7.68245e-05
-0.000137106
0.000106741
7.14784e-05
-0.000137097
-1.61319e-05
-4.0042e-06
-4.54295e-05
3.0609e-05
-7.90589e-05
7.59095e-05
-0.000106747
0.000104513
-0.000113665
0.000113658
5.58185e-05
-9.80047e-05
-2.14753e-05
1.74711e-05
-4.48139e-05
5.39477e-05
-6.82753e-05
9.93709e-05
-8.0217e-05
0.000116455
-7.23415e-05
0.000105783
3.53339e-05
-5.1857e-05
-1.53764e-05
3.28475e-05
-3.37439e-05
7.23152e-05
-4.50224e-05
0.000110649
-4.46979e-05
0.00011613
-3.40947e-05
9.51794e-05
2.92615e-05
-2.80222e-05
-6.98701e-06
3.98345e-05
-9.59135e-06
7.49196e-05
-7.94461e-06
0.000109003
-5.44005e-06
0.000113626
-1.16914e-07
8.98563e-05
3.41501e-05
-5.00546e-06
1.80301e-06
3.80315e-05
3.27694e-06
7.34457e-05
1.26624e-05
9.96172e-05
2.5993e-05
0.000100295
3.94241e-05
7.64251e-05
3.61368e-05
3.74374e-05
1.00636e-05
2.79679e-05
2.51138e-05
5.83955e-05
5.11738e-05
7.35571e-05
7.10495e-05
8.04195e-05
8.56685e-05
6.18061e-05
3.91439e-05
8.26614e-05
-3.72337e-05
6.52016e-05
-1.67462e-05
3.7908e-05
1.34876e-05
4.33232e-05
4.89005e-05
4.50066e-05
7.55455e-05
3.51611e-05
2.61231e-05
8.85663e-05
6.52016e-05
0.00010311
0.000146433
0.000191439
0.000226601
0.000252724
-0.000115657
9.72858e-05
-0.000123031
-6.66344e-05
-4.75605e-05
-1.46249e-06
-1.9429e-05
-3.87595e-05
-8.44594e-06
-0.000152368
0.000132939
-0.000112069
7.2258e-05
-9.58737e-05
-6.37558e-05
-4.09525e-05
-9.36807e-05
-0.000193321
-6.73357e-05
4.1589e-05
-6.50032e-05
-6.60884e-05
-3.8245e-05
-0.000120439
-0.000231566
-2.75634e-05
1.72955e-05
-2.73118e-05
-6.634e-05
-1.98617e-05
-0.000127889
-0.000251428
-1.29307e-05
2.20395e-06
-1.56738e-05
-6.35969e-05
-1.48598e-05
-0.000128703
-0.000266287
7.82857e-06
-1.06301e-05
3.3679e-06
-5.91362e-05
-3.72618e-06
-0.000121609
-0.000270014
3.72548e-05
-1.04475e-05
1.61139e-05
-3.79953e-05
1.75746e-06
-0.000107252
-0.000268256
6.97826e-05
2.43126e-06
4.16001e-05
-9.81279e-06
2.67758e-05
-9.24281e-05
-0.00024148
8.48675e-05
6.13006e-06
8.27714e-05
-7.71672e-06
6.84469e-05
-7.81037e-05
-0.000173033
0.000258854
0.000251137
0.000173033
-3.91344e-05
3.91344e-05
-6.49945e-05
2.58601e-05
-6.15577e-05
-3.43684e-06
-6.15577e-05
-3.44251e-05
7.35595e-05
-4.40012e-05
3.54363e-05
-4.44734e-05
-2.96469e-06
-0.000106031
-2.1698e-05
9.52575e-05
-1.01865e-05
2.39247e-05
-2.38454e-05
1.06942e-05
-0.000129876
-2.77734e-05
-5.31118e-06
-3.06295e-06
)
;

boundaryField
{
    movingWall
    {
        type            calculated;
        value           uniform 0;
    }
    fixedWalls
    {
        type            calculated;
        value           uniform 0;
    }
    frontAndBack
    {
        type            empty;
        value           nonuniform List<scalar> 0();
    }
}


// ************************************************************************* //
