/*--------------------------------*- C++ -*----------------------------------*\
  =========                 |
  \\      /  F ield         | OpenFOAM: The Open Source CFD Toolbox
   \\    /   O peration     | Website:  https://openfoam.org
    \\  /    A nd           | Version:  8
     \\/     M anipulation  |
\*---------------------------------------------------------------------------*/
FoamFile
{
    version     2.0;
    format      ascii;
    class       volScalarField;
    location    "55";
    object      p;
}
// * * * * * * * * * * * * * * * * * * * * * * * * * * * * * * * * * * * * * //

dimensions      [0 2 -2 0 0 0 0];

internalField   nonuniform List<scalar> 
12504
(
0.30294
0.29985
0.293351
0.283427
0.270341
0.254436
0.236085
0.215714
0.193795
0.170829
0.147308
0.123687
0.100361
0.0776503
0.0558037
0.0350025
0.0153766
-0.00298199
-0.0200055
-0.0356423
-0.0498495
-0.0625899
-0.073828
-0.0835332
-0.0916775
-0.0982439
-0.103224
-0.106631
-0.108488
-0.10886
-0.107821
-0.105479
-0.101958
-0.0974107
-0.0919951
-0.0858923
-0.0792706
-0.072311
-0.0651727
-0.0580076
-0.0509535
-0.0441038
-0.0375788
-0.0313749
-0.0256241
-0.0201822
-0.0152556
-0.0104793
-0.00623691
-0.00182764
0.305163
0.302007
0.295365
0.285224
0.271861
0.255633
0.236931
0.216196
0.193925
0.170637
0.146839
0.122996
0.099505
0.0766828
0.0547682
0.0339318
0.0142931
-0.00406453
-0.0210799
-0.0367061
-0.0509032
-0.0636356
-0.0748679
-0.0845684
-0.0927072
-0.0992652
-0.104231
-0.107615
-0.109438
-0.109763
-0.108663
-0.106247
-0.102637
-0.0979918
-0.0924689
-0.0862546
-0.0795202
-0.072452
-0.0652123
-0.0579573
-0.0508278
-0.0439193
-0.0373554
-0.0311294
-0.0253785
-0.0199484
-0.0150586
-0.0103187
-0.00614294
-0.00177992
0.309665
0.306371
0.299436
0.288854
0.274926
0.258039
0.238616
0.217141
0.194152
0.170208
0.14585
0.121562
0.0977436
0.074703
0.0526588
0.0317584
0.0120995
-0.00625191
-0.0232478
-0.0388508
-0.0530267
-0.0657428
-0.0769638
-0.0866559
-0.094785
-0.101327
-0.106265
-0.109603
-0.111359
-0.111591
-0.110368
-0.1078
-0.104011
-0.0991641
-0.0934224
-0.0869802
-0.0800161
-0.072726
-0.0652796
-0.0578417
-0.0505588
-0.0435308
-0.0368876
-0.030619
-0.0248682
-0.0194664
-0.0146493
-0.0099915
-0.00594419
-0.00168957
0.316545
0.313034
0.305646
0.294383
0.279579
0.261668
0.241126
0.218502
0.194401
0.169448
0.144235
0.119276
0.0949754
0.0716224
0.0494014
0.0284216
0.00874653
-0.00958473
-0.0265437
-0.0421068
-0.0562484
-0.0689399
-0.0801453
-0.0898272
-0.0979451
-0.104467
-0.109366
-0.112638
-0.114293
-0.114382
-0.112971
-0.11017
-0.106105
-0.100946
-0.0948654
-0.0880699
-0.0807494
-0.0731155
-0.0653491
-0.0576286
-0.0501096
-0.0428992
-0.0361326
-0.0298016
-0.0240556
-0.0187032
-0.014002
-0.00947677
-0.00563004
-0.00155012
0.325957
0.322146
0.314128
0.301916
0.285889
0.266545
0.244438
0.220206
0.194554
0.168203
0.141821
0.115964
0.0910397
0.0673013
0.0448795
0.0238262
0.00415625
-0.0141276
-0.0310226
-0.0465233
-0.0606152
-0.0732738
-0.0844617
-0.0941355
-0.102245
-0.108747
-0.1136
-0.116788
-0.118309
-0.118205
-0.116536
-0.113412
-0.108963
-0.103369
-0.0968149
-0.0895252
-0.0817064
-0.0735921
-0.0653793
-0.0572659
-0.0494198
-0.0419593
-0.0350219
-0.028614
-0.0228815
-0.0176074
-0.0130744
-0.00874398
-0.00518162
-0.00135516
0.338121
0.333912
0.325064
0.311598
0.293951
0.272703
0.248511
0.222137
0.194429
0.166243
0.138353
0.111374
0.0857047
0.0615415
0.0389305
0.0178406
-0.00177844
-0.0199694
-0.0367612
-0.05217
-0.0661937
-0.0788124
-0.0899847
-0.0996583
-0.107769
-0.114257
-0.119064
-0.122154
-0.123509
-0.123158
-0.121153
-0.117606
-0.112649
-0.106479
-0.0992946
-0.0913472
-0.0828653
-0.0741125
-0.0653075
-0.0566754
-0.0484002
-0.0406163
-0.0334673
-0.0269654
-0.0212597
-0.016105
-0.0118056
-0.00775114
-0.0045722
-0.00109836
0.353321
0.348604
0.338696
0.323622
0.303889
0.280178
0.25328
0.224128
0.193763
0.163234
0.133468
0.105148
0.0786514
0.054076
0.0313386
0.0102918
-0.0091981
-0.0272275
-0.0438612
-0.0591401
-0.0730755
-0.08565
-0.0968152
-0.106505
-0.114637
-0.121129
-0.125897
-0.128881
-0.130039
-0.129384
-0.126955
-0.122865
-0.117255
-0.110339
-0.102337
-0.093536
-0.0841937
-0.0746134
-0.0650433
-0.0557443
-0.0469222
-0.0387347
-0.0313447
-0.0247247
-0.0190686
-0.0140946
-0.0101133
-0.00644398
-0.00376705
-0.000774581
0.371925
0.36657
0.355335
0.338235
0.315861
0.289012
0.258645
0.225928
0.192171
0.158697
0.126647
0.096793
0.0694513
0.044555
0.0218263
0.000958349
-0.018283
-0.036053
-0.0524553
-0.0675576
-0.081384
-0.0939159
-0.105093
-0.11483
-0.123018
-0.129545
-0.134293
-0.137172
-0.138107
-0.137082
-0.134126
-0.129351
-0.122909
-0.115037
-0.105988
-0.0960903
-0.0856452
-0.0750058
-0.0644608
-0.0543164
-0.0448058
-0.036118
-0.0284217
-0.0217053
-0.0161444
-0.0114432
-0.00789187
-0.00475675
-0.00272459
-0.000382507
0.394389
0.388245
0.375372
0.355751
0.330067
0.299245
0.264454
0.227173
0.189092
0.151935
0.117157
0.0856276
0.0575335
0.0325296
0.0100452
-0.0104362
-0.0292598
-0.0466382
-0.0627149
-0.0775855
-0.0912842
-0.103785
-0.115009
-0.124843
-0.133143
-0.139759
-0.144525
-0.147313
-0.148
-0.146531
-0.14292
-0.137283
-0.129785
-0.120695
-0.110308
-0.0990079
-0.0871562
-0.0751684
-0.06339
-0.052182
-0.0418162
-0.0325189
-0.0244688
-0.0176754
-0.0122805
-0.00798594
-0.00501467
-0.00261632
-0.00140085
7.18433e-05
0.421277
0.414168
0.3993
0.376565
0.346758
0.310911
0.270466
0.227325
0.183704
0.141937
0.103942
0.0706978
0.0421302
0.0174233
-0.00443694
-0.0242306
-0.0424068
-0.0592216
-0.0748559
-0.0894331
-0.102991
-0.115487
-0.126815
-0.136824
-0.145323
-0.152106
-0.156953
-0.159687
-0.160106
-0.158102
-0.153682
-0.146961
-0.138123
-0.127477
-0.115381
-0.10229
-0.0886481
-0.074948
-0.0616158
-0.0490775
-0.0376599
-0.0276291
-0.0191847
-0.0123582
-0.00723773
-0.00353648
-0.00134602
4.83346e-05
0.000241684
0.000572145
0.453275
0.445
0.427729
0.401172
0.366251
0.324022
0.276304
0.22556
0.174781
0.127229
0.0855008
0.050681
0.0222114
-0.00151104
-0.0221642
-0.0408409
-0.058057
-0.0740835
-0.0891326
-0.103349
-0.116761
-0.129299
-0.140818
-0.151115
-0.159938
-0.167005
-0.172029
-0.174783
-0.174916
-0.172269
-0.166848
-0.158765
-0.148231
-0.135604
-0.121331
-0.105958
-0.0900444
-0.0741792
-0.0589016
-0.0447111
-0.0320165
-0.0211157
-0.0122444
-0.00546084
-0.000778113
0.00208248
0.00323039
0.00328977
0.00222079
0.00109197
0.491205
0.481545
0.461419
0.430206
0.388957
0.338558
0.281369
0.220562
0.160379
0.105583
0.0597028
0.0238152
-0.00352248
-0.0251905
-0.0438004
-0.0607624
-0.0765824
-0.0915121
-0.105788
-0.11956
-0.132823
-0.145464
-0.157285
-0.168024
-0.177342
-0.184842
-0.190169
-0.193111
-0.192946
-0.189543
-0.182907
-0.173136
-0.160474
-0.145352
-0.128336
-0.110087
-0.091323
-0.0727515
-0.0550659
-0.0388501
-0.0246349
-0.0127392
-0.00342392
0.00322997
0.00725663
0.00897594
0.00876145
0.00711801
0.00452171
0.00160426
0.536033
0.524776
0.501303
0.464487
0.41543
0.354478
0.284781
0.210261
0.137305
0.0733861
0.0233364
-0.0122306
-0.0365415
-0.0545359
-0.0699829
-0.0844431
-0.0982626
-0.111656
-0.124888
-0.138079
-0.151156
-0.163945
-0.176185
-0.187546
-0.197577
-0.205739
-0.211355
-0.214808
-0.214424
-0.210232
-0.202212
-0.190435
-0.1752
-0.15703
-0.136649
-0.114871
-0.0926159
-0.0707443
-0.0501459
-0.0315036
-0.0155048
-0.00250306
0.00722604
0.0136214
0.0167759
0.0170577
0.0151426
0.0114616
0.00708581
0.0021031
0.588864
0.57585
0.548517
0.50509
0.446385
0.371709
0.285246
0.191568
0.100563
0.0246735
-0.0288645
-0.0608414
-0.0784437
-0.0901455
-0.100893
-0.111828
-0.122842
-0.134102
-0.145894
-0.158256
-0.171014
-0.183924
-0.196657
-0.208805
-0.219814
-0.229105
-0.236155
-0.239316
-0.238794
-0.23395
-0.224537
-0.210594
-0.192485
-0.170838
-0.146563
-0.120674
-0.0943402
-0.068619
-0.0446347
-0.0231998
-0.00516275
0.00907212
0.0191164
0.0251103
0.0272322
0.0258882
0.0220119
0.0161042
0.00978662
0.00261948
0.650921
0.636125
0.604449
0.553445
0.482675
0.390012
0.280431
0.159307
0.042988
-0.049109
-0.104729
-0.126789
-0.130843
-0.131835
-0.135494
-0.141405
-0.148559
-0.156982
-0.166854
-0.178024
-0.1902
-0.20308
-0.216288
-0.229324
-0.241495
-0.252025
-0.259989
-0.264119
-0.264004
-0.258924
-0.24846
-0.232585
-0.211701
-0.186543
-0.158215
-0.127961
-0.0972332
-0.0673418
-0.0396694
-0.0152041
0.00503619
0.0206059
0.0310084
0.0366108
0.0375314
0.034548
0.0286655
0.0206096
0.0123762
0.00317804
0.723497
0.707129
0.670886
0.611537
0.525417
0.40872
0.265493
0.102397
-0.0463155
-0.157101
-0.210765
-0.212944
-0.193274
-0.177203
-0.170171
-0.168857
-0.170936
-0.176
-0.183695
-0.193464
-0.204872
-0.217582
-0.231185
-0.245096
-0.258544
-0.270524
-0.279901
-0.285502
-0.286496
-0.281918
-0.271176
-0.254138
-0.231185
-0.203121
-0.171218
-0.136957
-0.102068
-0.0681486
-0.0368463
-0.00936788
0.0131029
0.0300577
0.0409747
0.0462326
0.0461412
0.0417278
0.0340975
0.0242955
0.0144345
0.00369263
0.807836
0.790463
0.750268
0.68237
0.576912
0.42693
0.231819
0.001173
-0.18961
-0.307224
-0.342311
-0.309889
-0.25654
-0.218296
-0.197791
-0.187869
-0.184717
-0.186911
-0.192979
-0.201755
-0.212626
-0.225229
-0.239146
-0.253785
-0.26834
-0.281758
-0.292817
-0.30023
-0.302852
-0.299531
-0.289476
-0.272396
-0.248573
-0.218817
-0.184493
-0.147275
-0.109125
-0.0719161
-0.0375333
-0.00741888
0.017102
0.0354049
0.0469714
0.0521846
0.0514464
0.0460627
0.0372135
0.0263427
0.0154299
0.00394219
0.904765
0.887555
0.845817
0.770675
0.643075
0.446744
0.165572
-0.159252
-0.344612
-0.452523
-0.45083
-0.380332
-0.296184
-0.241913
-0.213678
-0.19862
-0.192433
-0.192829
-0.197536
-0.205236
-0.215354
-0.227537
-0.241374
-0.256295
-0.271499
-0.285959
-0.298427
-0.307471
-0.311736
-0.310005
-0.301316
-0.285182
-0.261737
-0.231726
-0.196515
-0.15787
-0.11789
-0.078652
-0.0422144
-0.0102271
0.0158741
0.0353268
0.0476119
0.0530819
0.0522268
0.0465011
0.0371709
0.0260662
0.014936
0.00372525
1.01397
0.999148
0.96089
0.883038
0.736355
0.480932
0.145336
-0.249134
-0.53854
-0.620327
-0.577814
-0.437965
-0.321081
-0.255571
-0.214831
-0.199317
-0.193652
-0.194406
-0.19904
-0.206361
-0.21594
-0.227539
-0.240856
-0.255415
-0.270504
-0.285158
-0.298158
-0.308076
-0.313521
-0.313183
-0.306008
-0.291363
-0.269232
-0.240246
-0.205683
-0.167292
-0.127183
-0.0875154
-0.0504188
-0.0176676
0.00924304
0.0294327
0.0423737
0.0483328
0.0478735
0.042463
0.0335463
0.0231417
0.0128392
0.00304244
1.1331
1.12442
1.09684
1.02738
0.874483
0.589134
0.15545
-0.297722
-0.630114
-0.330925
-0.257215
-0.220497
-0.201033
-0.196145
-0.19678
-0.200906
-0.207456
-0.21608
-0.226614
-0.23883
-0.252335
-0.266501
-0.28045
-0.29305
-0.302972
-0.30883
-0.309379
-0.303504
-0.29051
-0.270275
-0.243307
-0.210739
-0.174207
-0.135709
-0.097344
-0.0611836
-0.0290056
-0.00229003
0.0180148
0.0313667
0.0379281
0.0382939
0.0338906
0.0263271
0.0176634
0.0093956
0.00209839
1.25719
1.25938
1.25046
1.21102
1.06252
0.749448
0.262866
-0.251204
-0.219002
-0.203508
-0.197072
-0.197941
-0.201655
-0.207447
-0.215045
-0.224336
-0.235143
-0.247138
-0.259786
-0.272316
-0.283729
-0.292842
-0.298391
-0.299213
-0.294269
-0.282884
-0.264886
-0.24067
-0.211206
-0.177939
-0.142653
-0.107258
-0.0736377
-0.0434457
-0.0180592
0.00158599
0.0149603
0.0221489
0.023742
0.0210922
0.0158641
0.010075
0.00503809
0.00109878
1.3787
1.3949
1.41633
1.42196
1.30303
0.996684
-0.216827
-0.20117
-0.195788
-0.197135
-0.200666
-0.20588
-0.212545
-0.220564
-0.229797
-0.239982
-0.250678
-0.261247
-0.270853
-0.278503
-0.283123
-0.283675
-0.27931
-0.269433
-0.253873
-0.232942
-0.207442
-0.178581
-0.14786
-0.116894
-0.0872759
-0.0604191
-0.0374956
-0.0193236
-0.00635268
0.00148297
0.0047538
0.00467537
0.00279891
0.000928344
8.96437e-05
0.000172749
1.48627
1.51858
1.57499
1.6358
1.56796
1.33184
-0.19623
-0.192516
-0.194522
-0.198176
-0.203032
-0.208874
-0.215621
-0.223168
-0.231319
-0.23974
-0.247941
-0.255275
-0.260973
-0.264194
-0.264073
-0.260013
-0.251546
-0.238544
-0.221262
-0.200337
-0.176727
-0.151607
-0.126237
-0.10184
-0.0794884
-0.0600453
-0.0440897
-0.0318965
-0.0233467
-0.0179076
-0.0145823
-0.012177
-0.00935122
-0.00535122
-0.000819915
1.56768
1.61409
1.70321
1.81781
1.82034
1.70268
-0.19389
-0.188295
-0.191214
-0.195157
-0.199742
-0.204776
-0.210193
-0.215924
-0.221844
-0.227731
-0.233256
-0.237982
-0.241384
-0.242911
-0.24181
-0.237867
-0.230731
-0.220341
-0.206917
-0.190947
-0.173136
-0.154325
-0.135383
-0.117115
-0.100173
-0.085014
-0.0718666
-0.0607364
-0.0513864
-0.0433444
-0.0359228
-0.0285264
-0.0204975
-0.0112978
-0.00190484
1.61184
1.66655
1.7754
1.92161
1.9984
-0.180877
-0.185456
-0.188917
-0.19292
-0.197066
-0.201139
-0.205067
-0.20881
-0.212306
-0.215449
-0.218078
-0.219966
-0.220824
-0.220282
-0.218227
-0.214307
-0.208436
-0.200653
-0.191158
-0.180306
-0.168564
-0.156439
-0.1444
-0.132803
-0.121827
-0.11146
-0.101507
-0.0916397
-0.0814649
-0.0705919
-0.0587874
-0.0459103
-0.0323109
-0.0177797
-0.00314325
1.61226
1.66702
1.77598
1.92241
2.03615
-0.176173
-0.185469
-0.18885
-0.192467
-0.195815
-0.198651
-0.200859
-0.202419
-0.203322
-0.203574
-0.203178
-0.202122
-0.200369
-0.197846
-0.194626
-0.190653
-0.185989
-0.180757
-0.175144
-0.169382
-0.163709
-0.158313
-0.153264
-0.148462
-0.143602
-0.138185
-0.131579
-0.123105
-0.112205
-0.0985357
-0.0823085
-0.0639318
-0.0445739
-0.0247328
-0.00451711
1.56892
1.61544
1.70487
1.82007
1.9269
-0.181464
-0.189037
-0.191548
-0.194141
-0.196241
-0.19756
-0.197821
-0.197045
-0.195249
-0.192551
-0.189116
-0.185139
-0.180821
-0.176373
-0.172048
-0.168039
-0.164551
-0.161781
-0.159897
-0.159014
-0.159154
-0.160198
-0.161836
-0.16353
-0.164517
-0.163843
-0.16048
-0.153437
-0.142026
-0.12597
-0.105679
-0.0821053
-0.0570454
-0.0320325
-0.00588049
1.48825
1.52071
1.57756
1.63919
1.69724
1.63171
-0.193928
-0.195147
-0.196221
-0.197494
-0.198195
-0.197659
-0.195796
-0.192637
-0.188144
-0.182554
-0.176196
-0.169461
-0.162771
-0.15658
-0.151317
-0.147366
-0.145055
-0.14463
-0.146231
-0.149854
-0.155315
-0.162208
-0.169877
-0.177389
-0.183583
-0.187107
-0.186627
-0.1809
-0.169177
-0.151199
-0.127581
-0.0995695
-0.0693118
-0.0395484
-0.00740675
1.38132
1.39768
1.41957
1.42608
1.43261
1.27321
-0.203648
-0.201812
-0.201497
-0.201419
-0.200591
-0.198344
-0.19426
-0.188889
-0.181822
-0.173524
-0.164492
-0.155301
-0.146572
-0.138939
-0.133
-0.129271
-0.128164
-0.129944
-0.134708
-0.142323
-0.152417
-0.164325
-0.177091
-0.18945
-0.199926
-0.206846
-0.208687
-0.203987
-0.19206
-0.17257
-0.146447
-0.115017
-0.0805982
-0.0464296
-0.0102534
1.26032
1.26266
1.25415
1.21547
1.17705
0.865922
0.528954
-0.223754
-0.212422
-0.207403
-0.205916
-0.204762
-0.202649
-0.198882
-0.193267
-0.185411
-0.175962
-0.165267
-0.153941
-0.142719
-0.132389
-0.123724
-0.117444
-0.11415
-0.114288
-0.118106
-0.125644
-0.13663
-0.150525
-0.16644
-0.183187
-0.199228
-0.21288
-0.222232
-0.225669
-0.221599
-0.209454
-0.188813
-0.160914
-0.127124
-0.0897395
-0.0525928
-0.0130503
1.13663
1.12807
1.10078
1.03186
0.879787
0.65998
0.173883
-0.222013
-0.269153
-0.234599
-0.215464
-0.210607
-0.208328
-0.206434
-0.203351
-0.198303
-0.190928
-0.181498
-0.170149
-0.157541
-0.144445
-0.131739
-0.120343
-0.111123
-0.104882
-0.102249
-0.103664
-0.109327
-0.119179
-0.132836
-0.149608
-0.168421
-0.187927
-0.206389
-0.222024
-0.232755
-0.237016
-0.233096
-0.220629
-0.199143
-0.170108
-0.134949
-0.0958002
-0.0569454
-0.0154162
1.01781
1.00307
0.964982
0.887442
0.741155
0.486332
0.14886
-0.331962
-0.57135
-0.468253
-0.339191
-0.275358
-0.229962
-0.21606
-0.210524
-0.20796
-0.205581
-0.201793
-0.195836
-0.187569
-0.176653
-0.163961
-0.1501
-0.135928
-0.122421
-0.110572
-0.101351
-0.0955444
-0.09378
-0.0964593
-0.103705
-0.115365
-0.130931
-0.149602
-0.170156
-0.19117
-0.210764
-0.227175
-0.238221
-0.242499
-0.238232
-0.225311
-0.203249
-0.173668
-0.138068
-0.0983646
-0.058882
-0.0169821
0.908856
0.891683
0.850034
0.775005
0.647519
0.451162
0.16972
-0.156435
-0.440349
-0.570737
-0.531576
-0.422065
-0.308664
-0.255135
-0.22832
-0.215053
-0.208756
-0.205307
-0.202107
-0.197568
-0.190874
-0.1817
-0.170222
-0.156995
-0.142738
-0.12836
-0.114881
-0.103312
-0.0946594
-0.0896694
-0.0889289
-0.0927842
-0.10127
-0.11415
-0.130801
-0.150354
-0.17148
-0.192755
-0.212226
-0.228235
-0.238588
-0.242099
-0.237043
-0.223536
-0.201178
-0.171648
-0.136463
-0.0974433
-0.0583709
-0.0176465
0.812144
0.794773
0.754608
0.686698
0.581177
0.430928
0.23528
0.00352597
-0.189188
-0.30958
-0.347658
-0.317778
-0.26616
-0.228872
-0.209417
-0.200366
-0.196221
-0.193936
-0.191476
-0.187467
-0.181193
-0.172469
-0.161455
-0.148802
-0.135249
-0.121702
-0.109187
-0.0987175
-0.0911476
-0.087282
-0.0876218
-0.0924497
-0.101719
-0.115134
-0.131985
-0.151378
-0.171923
-0.192256
-0.210439
-0.224972
-0.233766
-0.235856
-0.229698
-0.215588
-0.193275
-0.164453
-0.130494
-0.0933391
-0.0557336
-0.0175137
0.728005
0.711623
0.675367
0.615949
0.529683
0.412672
0.268896
0.104929
-0.0451082
-0.157716
-0.213431
-0.217449
-0.199031
-0.183585
-0.176837
-0.175164
-0.175119
-0.175103
-0.174144
-0.171443
-0.166516
-0.159265
-0.149923
-0.139054
-0.127381
-0.115759
-0.105098
-0.0963417
-0.0903283
-0.0877598
-0.0890821
-0.0945333
-0.104009
-0.117189
-0.133323
-0.151536
-0.170441
-0.188762
-0.204705
-0.216929
-0.223565
-0.223857
-0.216539
-0.202038
-0.180239
-0.152856
-0.120917
-0.086633
-0.0514832
-0.016773
0.65563
0.640817
0.609104
0.558016
0.487082
0.394138
0.284102
0.162312
0.0450689
-0.0482082
-0.105109
-0.12827
-0.132971
-0.134027
-0.137131
-0.141603
-0.145762
-0.148811
-0.150367
-0.150046
-0.147559
-0.142869
-0.136214
-0.128088
-0.119145
-0.110158
-0.101937
-0.0953162
-0.0910353
-0.0897208
-0.0917664
-0.0973777
-0.106427
-0.1186
-0.133171
-0.149326
-0.16576
-0.181296
-0.194421
-0.203868
-0.208144
-0.206655
-0.198438
-0.184016
-0.163325
-0.138095
-0.108888
-0.078182
-0.0462448
-0.0156232
0.593785
0.580754
0.553378
0.509874
0.451026
0.376128
0.289327
0.195179
0.103571
0.0269766
-0.0272606
-0.059743
-0.0774567
-0.0887087
-0.0983087
-0.107177
-0.114783
-0.120743
-0.124913
-0.127147
-0.127313
-0.12543
-0.121721
-0.116605
-0.11064
-0.104481
-0.0988206
-0.0943657
-0.0917457
-0.0914991
-0.0939632
-0.0993153
-0.107432
-0.118028
-0.130452
-0.143976
-0.157448
-0.169874
-0.179933
-0.186682
-0.188785
-0.185878
-0.177245
-0.163467
-0.144441
-0.121877
-0.0958617
-0.0690321
-0.0406864
-0.0142458
0.541178
0.529907
0.506398
0.469522
0.420362
0.359255
0.289338
0.21453
0.141238
0.0769742
0.0266574
-0.00896284
-0.0329592
-0.0501163
-0.0640549
-0.0761476
-0.0864552
-0.0948364
-0.101266
-0.105742
-0.108259
-0.108888
-0.107837
-0.105457
-0.102208
-0.0986265
-0.095281
-0.0927492
-0.0915485
-0.0921223
-0.0947504
-0.0995774
-0.106498
-0.115263
-0.125334
-0.136076
-0.146561
-0.156027
-0.163298
-0.167607
-0.167937
-0.164098
-0.155518
-0.142798
-0.12575
-0.106002
-0.0832592
-0.0601701
-0.0353845
-0.0127937
0.496584
0.486916
0.466767
0.435518
0.394212
0.343729
0.286432
0.225499
0.165198
0.110338
0.0645162
0.0289142
0.00220996
-0.018346
-0.0352306
-0.0496989
-0.0620606
-0.072343
-0.0806043
-0.0869269
-0.0913877
-0.0940982
-0.0952544
-0.0951513
-0.094165
-0.0927304
-0.0913064
-0.0903551
-0.0902928
-0.0914728
-0.0941222
-0.0983532
-0.104083
-0.111102
-0.118983
-0.127197
-0.135033
-0.141889
-0.146795
-0.149122
-0.14814
-0.143772
-0.135531
-0.124008
-0.108927
-0.0917959
-0.072058
-0.0522598
-0.0306972
-0.0113842
0.458894
0.450617
0.43334
0.406776
0.371844
0.329602
0.281877
0.231147
0.180431
0.133034
0.0916134
0.0573343
0.0297352
0.0073207
-0.0114749
-0.0276222
-0.041503
-0.0532495
-0.0629725
-0.0707948
-0.0768357
-0.0812301
-0.0841636
-0.0858888
-0.0867172
-0.0870024
-0.0871152
-0.0874239
-0.0882613
-0.0899055
-0.0925384
-0.0962439
-0.100958
-0.10651
-0.112563
-0.118695
-0.124358
-0.129048
-0.13207
-0.132897
-0.130992
-0.126345
-0.118532
-0.108122
-0.0947724
-0.0798536
-0.0626656
-0.0455796
-0.0267587
-0.0100989
0.427138
0.420035
0.405178
0.382465
0.352693
0.316899
0.276538
0.23353
0.190121
0.148683
0.111187
0.0786774
0.0511585
0.0278998
0.0079765
-0.0092998
-0.0242874
-0.0371595
-0.0480478
-0.0570861
-0.0644089
-0.0701604
-0.0745168
-0.0776986
-0.0799686
-0.081618
-0.0829497
-0.0842598
-0.0858158
-0.0878367
-0.0904677
-0.0937711
-0.0976968
-0.102107
-0.106735
-0.111251
-0.115217
-0.118184
-0.119805
-0.119537
-0.116984
-0.112186
-0.104777
-0.0952887
-0.0833527
-0.0701989
-0.0550702
-0.040133
-0.0235553
-0.00898334
0.400487
0.394357
0.381514
0.361944
0.336337
0.305628
0.271001
0.233954
0.196205
0.159517
0.125387
0.0947418
0.0678295
0.044373
0.0238694
0.00586913
-0.00991401
-0.023647
-0.0354589
-0.0454786
-0.0538404
-0.060688
-0.066187
-0.070533
-0.0739514
-0.0766859
-0.0789881
-0.0810995
-0.0832374
-0.0855767
-0.0882337
-0.0912555
-0.0946022
-0.0981618
-0.101723
-0.105034
-0.107755
-0.109607
-0.110019
-0.108923
-0.105901
-0.101014
-0.0939406
-0.0851773
-0.0743501
-0.0625631
-0.049054
-0.0357849
-0.0210009
-0.00805089
0.378251
0.372918
0.361729
0.344707
0.32245
0.295767
0.265633
0.233234
0.199909
0.167014
0.13573
0.106875
0.0808138
0.0575332
0.0368059
0.0183716
0.0020318
-0.0123491
-0.0248842
-0.0356893
-0.0448901
-0.0526232
-0.0590424
-0.0643227
-0.0686599
-0.0722621
-0.0753412
-0.0780978
-0.0807113
-0.0833242
-0.0860306
-0.0888675
-0.0918022
-0.0947444
-0.0975242
-0.0999453
-0.101732
-0.102654
-0.1023
-0.100609
-0.0972518
-0.0923122
-0.0855092
-0.077304
-0.0673331
-0.0565922
-0.0443411
-0.0323565
-0.0189879
-0.00729241
0.35986
0.355171
0.345325
0.330354
0.310772
0.287274
0.260666
0.231903
0.202051
0.17219
0.143281
0.116047
0.0909048
0.0679914
0.0472614
0.0285974
0.0118841
-0.00297388
-0.0160668
-0.0274937
-0.0373673
-0.0458132
-0.0529725
-0.0590025
-0.0640757
-0.0683726
-0.0720745
-0.0753517
-0.0783547
-0.0812021
-0.0839714
-0.0866933
-0.0893402
-0.0918392
-0.0940506
-0.0958192
-0.0969155
-0.0971614
-0.0962542
-0.0941356
-0.0905413
-0.0855744
-0.0789864
-0.0712091
-0.061896
-0.0519533
-0.0406738
-0.0296756
-0.017414
-0.00668778
0.344852
0.340677
0.331906
0.318564
0.301099
0.280102
0.256248
0.230321
0.203192
0.175743
0.148783
0.122955
0.0986931
0.0762227
0.0556162
0.03686
0.0199088
0.00470757
-0.00880894
-0.0207215
-0.0311281
-0.040142
-0.0478918
-0.0545194
-0.0601789
-0.065029
-0.069228
-0.0729229
-0.0762425
-0.079288
-0.0821246
-0.0847787
-0.0872267
-0.0894092
-0.0912096
-0.0925031
-0.0930975
-0.0928574
-0.0915472
-0.0891219
-0.0853616
-0.0803836
-0.0739664
-0.0665173
-0.0577083
-0.0483736
-0.0378405
-0.0275973
-0.0161941
-0.00621402
0.332856
0.329084
0.321154
0.309084
0.293265
0.274204
0.252475
0.228735
0.203714
0.178156
0.152757
0.128101
0.104622
0.0825963
0.0621715
0.0434074
0.0263139
0.010872
-0.00295967
-0.0152441
-0.0260649
-0.0355234
-0.0437365
-0.0508333
-0.0569528
-0.0622373
-0.0668271
-0.070852
-0.0744248
-0.0776336
-0.0805345
-0.0831512
-0.0854631
-0.0874217
-0.0889275
-0.0898789
-0.0901123
-0.0895245
-0.0879231
-0.0852797
-0.0814051
-0.0764267
-0.0701442
-0.0629455
-0.0545198
-0.0456448
-0.0356792
-0.0260084
-0.0152615
-0.00584992
0.323582
0.320116
0.312825
0.301719
0.287142
0.26954
0.249408
0.227312
0.20388
0.179761
0.155571
0.131849
0.109022
0.0873936
0.0671604
0.0484323
0.0312602
0.0156548
0.00159548
-0.0109652
-0.0220982
-0.0318943
-0.0404602
-0.0479146
-0.0543849
-0.0600007
-0.0648892
-0.0691674
-0.0729361
-0.0762744
-0.0792315
-0.0818295
-0.0840501
-0.0858531
-0.0871514
-0.0878607
-0.0878398
-0.0870076
-0.0852001
-0.0824037
-0.0784523
-0.0734792
-0.0673005
-0.0602893
-0.0521489
-0.0436144
-0.0340705
-0.0248239
-0.0145666
-0.00557795
0.316809
0.313563
0.306732
0.296319
0.282633
0.266074
0.247083
0.226162
0.20387
0.18079
0.157485
0.134459
0.112131
0.090823
0.0707581
0.0520801
0.0348691
0.0191578
0.0049419
-0.00781363
-0.0191698
-0.0292087
-0.0380292
-0.0457421
-0.0524659
-0.0583214
-0.0634263
-0.0678887
-0.0718008
-0.0752353
-0.0782372
-0.0808271
-0.0829887
-0.0846874
-0.0858454
-0.0863901
-0.0861968
-0.085199
-0.0832515
-0.0803522
-0.0763512
-0.0713854
-0.0652828
-0.0584055
-0.0504678
-0.0421741
-0.0329294
-0.0239829
-0.0140736
-0.00538442
0.312379
0.309274
0.302741
0.292775
0.279665
0.263778
0.245522
0.225359
0.203804
0.181399
0.158672
0.136107
0.114118
0.0930316
0.0730899
0.0544559
0.0372282
0.0214543
0.00714069
-0.00573893
-0.0172387
-0.0274347
-0.0364203
-0.0443009
-0.0511895
-0.0572009
-0.0624465
-0.067029
-0.0710351
-0.0745335
-0.0775663
-0.0801535
-0.0822798
-0.0839147
-0.0849859
-0.0854289
-0.0851284
-0.0840277
-0.0819936
-0.0790313
-0.0750008
-0.0700414
-0.0639889
-0.0571978
-0.0493908
-0.0412508
-0.0321985
-0.0234428
-0.0137592
-0.00525758
0.310193
0.307154
0.300767
0.291022
0.278193
0.262636
0.244739
0.224947
0.203754
0.18168
0.159239
0.136904
0.115085
0.0941124
0.0742353
0.0556264
0.038393
0.0225901
0.00822975
-0.00471013
-0.0162801
-0.0265531
-0.0356199
-0.0435831
-0.0505527
-0.0566408
-0.0619558
-0.0665974
-0.07065
-0.0741803
-0.0772288
-0.0798154
-0.0819254
-0.0835299
-0.0845597
-0.0849539
-0.0846022
-0.0834522
-0.0813772
-0.0783842
-0.0743408
-0.069384
-0.063358
-0.0566069
-0.048867
-0.0407974
-0.0318457
-0.0231734
-0.0136136
-0.00518445
0.302938
0.299853
0.293353
0.283427
0.270341
0.254436
0.236085
0.215713
0.193794
0.170828
0.147307
0.123686
0.10036
0.0776496
0.0558032
0.0350022
0.0153764
-0.00298213
-0.0200056
-0.0356424
-0.0498496
-0.06259
-0.0738282
-0.0835335
-0.0916778
-0.0982442
-0.103224
-0.106631
-0.108488
-0.10886
-0.107821
-0.10548
-0.101958
-0.0974107
-0.0919949
-0.0858922
-0.0792703
-0.0723108
-0.0651723
-0.0580073
-0.0509532
-0.0441035
-0.0375787
-0.0313742
-0.0256246
-0.0201807
-0.0152573
-0.0104762
-0.00624122
-0.00182148
0.305162
0.30201
0.295367
0.285224
0.271861
0.255634
0.236931
0.216196
0.193924
0.170636
0.146838
0.122995
0.0995041
0.0766821
0.0547677
0.0339315
0.0142929
-0.0040647
-0.02108
-0.0367063
-0.0509034
-0.0636358
-0.0748681
-0.0845687
-0.0927075
-0.0992655
-0.104231
-0.107615
-0.109438
-0.109764
-0.108664
-0.106247
-0.102637
-0.0979919
-0.0924688
-0.0862545
-0.0795199
-0.0724518
-0.0652119
-0.0579571
-0.0508275
-0.0439189
-0.0373554
-0.0311286
-0.0253791
-0.0199469
-0.0150604
-0.0103156
-0.00614732
-0.00177357
0.309664
0.306374
0.299438
0.288855
0.274926
0.258039
0.238616
0.21714
0.194151
0.170207
0.145849
0.12156
0.0977426
0.0747023
0.0526584
0.0317582
0.0120993
-0.00625207
-0.023248
-0.038851
-0.0530269
-0.0657431
-0.0769641
-0.0866562
-0.0947854
-0.101328
-0.106265
-0.109603
-0.11136
-0.111591
-0.110368
-0.1078
-0.104011
-0.0991642
-0.0934222
-0.0869801
-0.0800157
-0.0727258
-0.0652792
-0.0578414
-0.0505585
-0.0435304
-0.0368877
-0.0306182
-0.0248688
-0.0194648
-0.0146512
-0.00998817
-0.00594884
-0.00168269
0.316544
0.313037
0.305648
0.294384
0.27958
0.261668
0.241126
0.218501
0.1944
0.169446
0.144233
0.119274
0.0949744
0.0716218
0.0494011
0.0284214
0.00874636
-0.00958488
-0.0265438
-0.0421069
-0.0562486
-0.0689401
-0.0801456
-0.0898276
-0.0979455
-0.104467
-0.109366
-0.112639
-0.114294
-0.114383
-0.112971
-0.11017
-0.106105
-0.100946
-0.0948652
-0.0880698
-0.080749
-0.0731153
-0.0653486
-0.0576283
-0.0501092
-0.0428988
-0.0361327
-0.0298008
-0.0240563
-0.0187015
-0.0140042
-0.00947304
-0.00563517
-0.00154245
0.325956
0.322149
0.314131
0.301916
0.28589
0.266545
0.244438
0.220204
0.194552
0.168201
0.141819
0.115963
0.0910386
0.0673007
0.0448793
0.0238261
0.00415612
-0.0141277
-0.0310228
-0.0465235
-0.0606154
-0.0732741
-0.0844621
-0.0941359
-0.102245
-0.108747
-0.1136
-0.116789
-0.11831
-0.118205
-0.116536
-0.113412
-0.108963
-0.103369
-0.0968146
-0.0895251
-0.0817059
-0.0735919
-0.0653787
-0.0572655
-0.0494194
-0.0419589
-0.035022
-0.028613
-0.0228823
-0.0176056
-0.0130769
-0.00873979
-0.0051874
-0.00134649
0.33812
0.333916
0.325067
0.311598
0.293951
0.272703
0.24851
0.222136
0.194427
0.16624
0.138351
0.111372
0.0857036
0.0615411
0.0389304
0.0178406
-0.00177854
-0.0199696
-0.0367614
-0.0521701
-0.066194
-0.0788127
-0.0899852
-0.0996588
-0.107769
-0.114258
-0.119064
-0.122155
-0.12351
-0.123159
-0.121154
-0.117606
-0.112649
-0.106479
-0.0992943
-0.091347
-0.0828647
-0.0741121
-0.0653067
-0.056675
-0.0483996
-0.0406157
-0.0334674
-0.0269644
-0.0212605
-0.0161031
-0.0118084
-0.00774653
-0.00457871
-0.00108856
0.35332
0.348609
0.3387
0.323622
0.303889
0.280178
0.253279
0.224125
0.193759
0.16323
0.133464
0.105145
0.0786504
0.0540759
0.031339
0.0102919
-0.00919819
-0.0272277
-0.0438614
-0.0591403
-0.0730758
-0.0856504
-0.0968157
-0.106506
-0.114638
-0.12113
-0.125897
-0.128881
-0.13004
-0.129385
-0.126956
-0.122866
-0.117255
-0.110339
-0.102337
-0.0935358
-0.084193
-0.074613
-0.0650424
-0.0557439
-0.0469214
-0.038734
-0.0313438
-0.0247236
-0.0190694
-0.0140926
-0.0101164
-0.00643909
-0.00377418
-0.000763661
0.371923
0.366576
0.355339
0.338236
0.315861
0.289012
0.258644
0.225924
0.192166
0.158691
0.126642
0.0967898
0.0694505
0.0445557
0.0218273
0.00095876
-0.018283
-0.0360532
-0.0524555
-0.0675578
-0.0813843
-0.0939163
-0.105093
-0.114831
-0.123019
-0.129546
-0.134294
-0.137173
-0.138108
-0.137083
-0.134127
-0.129352
-0.122909
-0.115037
-0.105988
-0.0960902
-0.0856445
-0.0750055
-0.0644599
-0.0543161
-0.044805
-0.0361175
-0.028421
-0.0217044
-0.0161454
-0.0114414
-0.00789514
-0.00475185
-0.00273209
-0.000370838
0.394387
0.388252
0.375378
0.355753
0.330068
0.299245
0.264451
0.227167
0.189083
0.151926
0.11715
0.0856243
0.0575335
0.0325318
0.010047
-0.0104356
-0.0292598
-0.0466382
-0.0627147
-0.0775855
-0.0912842
-0.103785
-0.115009
-0.124843
-0.133144
-0.139759
-0.144526
-0.147314
-0.148001
-0.146532
-0.142921
-0.137284
-0.129785
-0.120695
-0.110308
-0.099008
-0.0871557
-0.0751683
-0.0633892
-0.0521818
-0.0418155
-0.0325185
-0.0244683
-0.0176749
-0.0122815
-0.00798454
-0.00501788
-0.00261188
-0.0014082
8.33961e-05
0.421275
0.414175
0.399306
0.376567
0.34676
0.310911
0.270462
0.227315
0.18369
0.141923
0.103933
0.0706959
0.0421341
0.0174287
-0.0044342
-0.0242303
-0.0424069
-0.0592212
-0.074855
-0.0894323
-0.10299
-0.115487
-0.126815
-0.136824
-0.145323
-0.152107
-0.156954
-0.159688
-0.160107
-0.158103
-0.153682
-0.146962
-0.138124
-0.127478
-0.115382
-0.102291
-0.0886482
-0.0749484
-0.0616157
-0.0490777
-0.0376596
-0.0276293
-0.0191847
-0.0123582
-0.00723872
-0.00353577
-0.00134881
5.16624e-05
0.000235259
0.000582097
0.453273
0.445007
0.427738