/*--------------------------------*- C++ -*----------------------------------*\
  =========                 |
  \\      /  F ield         | OpenFOAM: The Open Source CFD Toolbox
   \\    /   O peration     | Website:  https://openfoam.org
    \\  /    A nd           | Version:  8
     \\/     M anipulation  |
\*---------------------------------------------------------------------------*/
FoamFile
{
    version     2.0;
    format      ascii;
    class       volVectorField;
    location    "55";
    object      U;
}
// * * * * * * * * * * * * * * * * * * * * * * * * * * * * * * * * * * * * * //

dimensions      [0 1 -1 0 0 0 0];

internalField   nonuniform List<vector> 
12504
(
(1.00015 -0.000698909 8.61632e-07)
(1.00357 -0.00208321 -1.05064e-06)
(1.01038 -0.00340961 -1.97679e-06)
(1.02052 -0.0046337 -1.31011e-06)
(1.03361 -0.00571809 -7.02198e-07)
(1.04923 -0.0066325 -4.75016e-07)
(1.06692 -0.007355 -3.30812e-07)
(1.08617 -0.00787387 -1.03405e-08)
(1.10648 -0.00818896 3.4413e-07)
(1.12733 -0.00831148 6.59273e-07)
(1.14826 -0.00826244 8.94625e-07)
(1.16887 -0.00806965 1.02482e-06)
(1.18881 -0.00776385 1.03845e-06)
(1.20786 -0.00737466 9.54655e-07)
(1.22583 -0.00692757 8.07538e-07)
(1.24262 -0.00644226 6.46167e-07)
(1.25814 -0.0059327 4.96103e-07)
(1.27235 -0.00540795 3.82505e-07)
(1.28523 -0.00487358 2.93752e-07)
(1.29676 -0.00433252 2.44077e-07)
(1.30693 -0.00378649 2.06459e-07)
(1.31572 -0.00323623 2.09219e-07)
(1.32314 -0.00268316 2.07178e-07)
(1.32916 -0.00212893 2.46576e-07)
(1.33381 -0.00157739 2.52356e-07)
(1.33707 -0.00103284 3.00076e-07)
(1.339 -0.000502888 2.76045e-07)
(1.3396 5.43102e-06 2.95561e-07)
(1.33898 0.000480635 2.50379e-07)
(1.33718 0.000914478 3.26723e-07)
(1.3344 0.0012933 2.24918e-07)
(1.33069 0.00161072 2.81403e-07)
(1.32632 0.00185248 9.74227e-08)
(1.32137 0.00201839 1.64514e-07)
(1.31619 0.00209474 -9.116e-08)
(1.31082 0.00209218 1.77849e-08)
(1.30568 0.00199654 -2.63622e-07)
(1.30076 0.00183403 -1.04875e-07)
(1.29647 0.00158585 -3.6214e-07)
(1.29277 0.00129878 -2.1914e-07)
(1.28993 0.000941392 -3.18969e-07)
(1.28804 0.000586636 -3.54582e-07)
(1.28696 0.000179929 -2.43752e-08)
(1.28721 -0.000173468 -7.24097e-07)
(1.28774 -0.000564348 5.0082e-07)
(1.29023 -0.000851238 -1.44474e-06)
(1.29178 -0.00116503 1.559e-06)
(1.29651 -0.00133781 -2.48042e-06)
(1.29797 -0.00152149 2.49754e-06)
(1.30498 -0.00156777 -1.87283e-06)
(1.00015 -0.002115 8.32276e-07)
(1.00364 -0.00629882 -1.11413e-06)
(1.01061 -0.0103066 -2.00924e-06)
(1.02097 -0.0140055 -1.33858e-06)
(1.03435 -0.0172806 -7.37304e-07)
(1.05031 -0.0200392 -5.0916e-07)
(1.06836 -0.0222148 -3.47943e-07)
(1.088 -0.023772 1.97288e-09)
(1.10868 -0.0247106 3.82744e-07)
(1.12988 -0.0250653 7.18779e-07)
(1.15112 -0.0249009 9.65572e-07)
(1.17199 -0.0243034 1.09387e-06)
(1.19215 -0.0233672 1.09321e-06)
(1.21137 -0.0221831 9.89453e-07)
(1.22948 -0.0208284 8.24875e-07)
(1.24636 -0.0193622 6.53911e-07)
(1.26196 -0.0178262 5.02113e-07)
(1.27624 -0.0162469 3.91484e-07)
(1.28918 -0.0146403 3.06721e-07)
(1.30076 -0.0130147 2.60709e-07)
(1.31098 -0.0113745 2.26243e-07)
(1.31981 -0.00972152 2.32174e-07)
(1.32727 -0.00805964 2.32785e-07)
(1.33332 -0.00639354 2.7397e-07)
(1.33799 -0.00473449 2.80804e-07)
(1.34126 -0.00309555 3.28824e-07)
(1.34317 -0.00149933 3.03698e-07)
(1.34375 3.22124e-05 3.18446e-07)
(1.34309 0.00146526 2.75298e-07)
(1.34123 0.00277403 3.55642e-07)
(1.33837 0.00391726 2.54015e-07)
(1.33455 0.00487497 3.10753e-07)
(1.33008 0.00560432 1.20506e-07)
(1.32501 0.00610395 1.8695e-07)
(1.31971 0.00633284 -7.52066e-08)
(1.31422 0.00632241 3.24138e-08)
(1.30898 0.00603045 -2.60081e-07)
(1.30396 0.00553555 -1.06765e-07)
(1.29959 0.00478146 -3.72288e-07)
(1.29585 0.00390951 -2.28855e-07)
(1.293 0.00282462 -3.2634e-07)
(1.29112 0.00174903 -3.62823e-07)
(1.29008 0.000513185 -2.25524e-08)
(1.29041 -0.000555919 -7.4418e-07)
(1.29103 -0.00174248 5.17086e-07)
(1.29369 -0.00260759 -1.47716e-06)
(1.29534 -0.00356186 1.60491e-06)
(1.30031 -0.0040778 -2.53674e-06)
(1.30185 -0.00463884 2.5593e-06)
(1.30917 -0.00477131 -1.93194e-06)
(1.00015 -0.00358014 8.48488e-07)
(1.0038 -0.0106567 -1.1929e-06)
(1.01108 -0.0174338 -2.11089e-06)
(1.0219 -0.0236873 -1.41437e-06)
(1.03587 -0.0292189 -7.90991e-07)
(1.0525 -0.0338693 -5.43529e-07)
(1.0713 -0.0375241 -3.43466e-07)
(1.09172 -0.0401227 6.25082e-08)
(1.11316 -0.0416653 5.05288e-07)
(1.13508 -0.0422135 8.92504e-07)
(1.15695 -0.0418819 1.1659e-06)
(1.17836 -0.040822 1.28636e-06)
(1.19896 -0.0391994 1.2455e-06)
(1.21852 -0.0371714 1.08557e-06)
(1.23689 -0.0348696 8.69006e-07)
(1.25398 -0.0323932 6.64233e-07)
(1.26975 -0.0298096 4.97737e-07)
(1.28417 -0.0271613 3.85353e-07)
(1.29723 -0.0244726 3.03049e-07)
(1.30892 -0.0217554 2.61235e-07)
(1.31923 -0.0190151 2.31305e-07)
(1.32816 -0.0162531 2.44079e-07)
(1.33569 -0.0134744 2.5084e-07)
(1.3418 -0.010686 2.99128e-07)
(1.34651 -0.00790587 3.09625e-07)
(1.3498 -0.00515603 3.63093e-07)
(1.3517 -0.00247416 3.35716e-07)
(1.35222 0.000102014 3.58939e-07)
(1.35148 0.00251539 3.13068e-07)
(1.34949 0.00472141 3.98839e-07)
(1.34647 0.00664957 2.89573e-07)
(1.34246 0.00826484 3.48665e-07)
(1.33777 0.00949409 1.40931e-07)
(1.33245 0.0103341 2.08155e-07)
(1.32691 0.0107149 -7.8999e-08)
(1.32118 0.0106893 3.21776e-08)
(1.31572 0.0101852 -2.87731e-07)
(1.3105 0.00933684 -1.23525e-07)
(1.306 0.00804721 -4.12469e-07)
(1.30215 0.00655907 -2.52274e-07)
(1.29927 0.00470753 -3.59323e-07)
(1.29743 0.00287614 -3.93886e-07)
(1.29647 0.000771152 1.17136e-08)
(1.29699 -0.0010465 -7.93441e-07)
(1.29779 -0.00306861 5.61948e-07)
(1.30079 -0.00453195 -1.57939e-06)
(1.30265 -0.00615651 1.74235e-06)
(1.30811 -0.00701997 -2.71131e-06)
(1.3098 -0.00797527 2.75491e-06)
(1.31776 -0.00818524 -2.08404e-06)
(1.00016 -0.00512519 8.92893e-07)
(1.00405 -0.0152541 -1.30272e-06)
(1.01181 -0.0249523 -2.2888e-06)
(1.02334 -0.0338965 -1.54858e-06)
(1.03821 -0.0417976 -8.77312e-07)
(1.05591 -0.0484223 -5.96766e-07)
(1.07587 -0.0536024 -3.28026e-07)
(1.09749 -0.057248 1.68659e-07)
(1.12013 -0.0593606 7.14959e-07)
(1.14316 -0.0600345 1.19147e-06)
(1.16601 -0.0594449 1.51059e-06)
(1.18824 -0.0578225 1.614e-06)
(1.20951 -0.0554173 1.4992e-06)
(1.22959 -0.0524624 1.23989e-06)
(1.24836 -0.0491482 9.34341e-07)
(1.26577 -0.0456131 6.73656e-07)
(1.28179 -0.0419483 4.84046e-07)
(1.29643 -0.038208 3.69383e-07)
(1.30968 -0.034422 2.90411e-07)
(1.32154 -0.0306024 2.54414e-07)
(1.33201 -0.0267526 2.31301e-07)
(1.34108 -0.0228711 2.55258e-07)
(1.34874 -0.0189619 2.71871e-07)
(1.35496 -0.0150332 3.32167e-07)
(1.35974 -0.0111089 3.4791e-07)
(1.36306 -0.00721938 4.10875e-07)
(1.36495 -0.00341836 3.80418e-07)
(1.3654 0.000240229 4.16061e-07)
(1.36453 0.00367288 3.70445e-07)
(1.36235 0.00681498 4.66221e-07)
(1.35908 0.0095635 3.4151e-07)
(1.35476 0.0118667 4.04785e-07)
(1.34973 0.0136171 1.67998e-07)
(1.34404 0.0148095 2.38208e-07)
(1.33813 0.0153408 -9.18337e-08)
(1.33201 0.0152882 2.79762e-08)
(1.32622 0.0145445 -3.37749e-07)
(1.32071 0.0133068 -1.50878e-07)
(1.31598 0.0114303 -4.82523e-07)
(1.31199 0.00927252 -2.91043e-07)
(1.30906 0.00658699 -4.12401e-07)
(1.30727 0.00393895 -4.23896e-07)
(1.30645 0.000895052 -3.02123e-08)
(1.30726 -0.00172756 -8.98453e-07)
(1.30835 -0.00464983 6.20825e-07)
(1.31186 -0.00674875 -1.73422e-06)
(1.31407 -0.00908783 1.96417e-06)
(1.32026 -0.0103126 -2.97377e-06)
(1.32222 -0.0116811 3.06808e-06)
(1.33114 -0.0119587 -2.30595e-06)
(1.00018 -0.00678799 9.52883e-07)
(1.0044 -0.0202019 -1.45935e-06)
(1.01282 -0.0330427 -2.55499e-06)
(1.02534 -0.0448769 -1.75979e-06)
(1.04148 -0.0553138 -1.02096e-06)
(1.06066 -0.0640352 -6.97227e-07)
(1.08226 -0.0708085 -3.17508e-07)
(1.10558 -0.0755086 3.24159e-07)
(1.12989 -0.0781388 1.03726e-06)
(1.15447 -0.0788347 1.66217e-06)
(1.17869 -0.077849 2.05432e-06)
(1.20206 -0.0755137 2.12188e-06)
(1.22424 -0.0721836 1.87961e-06)
(1.24502 -0.0681817 1.46049e-06)
(1.26434 -0.0637625 1.02154e-06)
(1.28217 -0.059102 6.84485e-07)
(1.29855 -0.05431 4.69089e-07)
(1.31348 -0.0494475 3.56805e-07)
(1.327 -0.0445444 2.84062e-07)
(1.33911 -0.0396084 2.55907e-07)
(1.34982 -0.0346367 2.42768e-07)
(1.35911 -0.0296214 2.8309e-07)
(1.36696 -0.0245626 3.13556e-07)
(1.37334 -0.0194674 3.89855e-07)
(1.37825 -0.0143648 4.11826e-07)
(1.38162 -0.00929314 4.86755e-07)
(1.38351 -0.00432323 4.49964e-07)
(1.38387 0.000473291 4.95683e-07)
(1.38283 0.00498349 4.55482e-07)
(1.38038 0.00911965 5.69386e-07)
(1.37677 0.0127413 4.24102e-07)
(1.37203 0.0157773 4.91587e-07)
(1.36653 0.0180806 2.14765e-07)
(1.3603 0.0196433 2.894e-07)
(1.35387 0.0203232 -1.01311e-07)
(1.34722 0.0202257 2.9281e-08)
(1.34096 0.0192017 -4.03779e-07)
(1.33503 0.0175217 -1.81865e-07)
(1.33 0.0149825 -5.79558e-07)
(1.3258 0.0120764 -3.39989e-07)
(1.3228 0.00845745 -5.03391e-07)
(1.32109 0.00490501 -4.33324e-07)
(1.32048 0.000810891 -1.04912e-07)
(1.32168 -0.0026922 -1.02171e-06)
(1.32317 -0.00660766 6.88352e-07)
(1.32739 -0.00939175 -1.9137e-06)
(1.3301 -0.0125109 2.24257e-06)
(1.33729 -0.014109 -3.28651e-06)
(1.33961 -0.0159197 3.46442e-06)
(1.34983 -0.0162408 -2.57577e-06)
(1.0002 -0.0086099 1.03041e-06)
(1.00486 -0.025622 -1.65305e-06)
(1.01416 -0.0419052 -2.90813e-06)
(1.02798 -0.0569017 -2.04925e-06)
(1.0458 -0.0701034 -1.2301e-06)
(1.06696 -0.081092 -8.57662e-07)
(1.09075 -0.0895537 -3.12714e-07)
(1.11635 -0.0953182 5.50789e-07)
(1.14289 -0.0983906 1.52725e-06)
(1.16954 -0.0989596 2.39659e-06)
(1.19557 -0.0973811 2.90362e-06)
(1.22043 -0.0941214 2.89679e-06)
(1.24378 -0.089671 2.43062e-06)
(1.26546 -0.0844616 1.7519e-06)
(1.28547 -0.0788176 1.11049e-06)
(1.30385 -0.0729482 6.74571e-07)
(1.32069 -0.0669733 4.39557e-07)
(1.33603 -0.0609529 3.41321e-07)
(1.34992 -0.0549102 2.78595e-07)
(1.36238 -0.0488422 2.59381e-07)
(1.37342 -0.0427339 2.58995e-07)
(1.38302 -0.0365664 3.20324e-07)
(1.39115 -0.030332 3.67388e-07)
(1.39777 -0.0240345 4.62088e-07)
(1.40285 -0.0177062 4.90246e-07)
(1.40633 -0.0113935 5.7929e-07)
(1.40822 -0.00518538 5.33454e-07)
(1.40848 0.000826322 5.92454e-07)
(1.40722 0.0064959 5.65226e-07)
(1.40442 0.0117072 7.04791e-07)
(1.40036 0.0162761 5.35906e-07)
(1.39504 0.0201075 6.08074e-07)
(1.3889 0.0230081 2.81383e-07)
(1.38197 0.0249658 3.59701e-07)
(1.37483 0.0257923 -1.05708e-07)
(1.36747 0.0256254 3.95922e-08)
(1.36058 0.0242658 -4.77855e-07)
(1.35407 0.0220707 -2.11092e-07)
(1.34863 0.0187656 -6.9251e-07)
(1.34414 0.0150036 -3.82608e-07)
(1.34106 0.0103147 -6.36965e-07)
(1.33944 0.00574114 -4.69005e-07)
(1.33908 0.000451358 -2.22006e-07)
(1.34077 -0.00403486 -1.1223e-06)
(1.34282 -0.00907083 7.54972e-07)
(1.34792 -0.0126005 -2.07497e-06)
(1.35127 -0.0165872 2.55163e-06)
(1.35969 -0.0185625 -3.59252e-06)
(1.36249 -0.0208534 3.91146e-06)
(1.37428 -0.0211705 -2.86145e-06)
(1.00022 -0.010638 1.12817e-06)
(1.00544 -0.0316526 -1.86702e-06)
(1.01586 -0.0517701 -3.35945e-06)
(1.03136 -0.070287 -2.42553e-06)
(1.05134 -0.0865593 -1.52749e-06)
(1.07507 -0.100046 -1.10442e-06)
(1.10171 -0.110327 -3.21172e-07)
(1.13028 -0.11717 8.7197e-07)
(1.15974 -0.120579 2.25598e-06)
(1.18909 -0.120812 3.52082e-06)
(1.21745 -0.118367 4.20878e-06)
(1.24419 -0.113895 4.06887e-06)
(1.269 -0.108065 3.22388e-06)
(1.29178 -0.101445 2.12392e-06)
(1.31265 -0.0944297 1.14692e-06)
(1.33173 -0.087253 5.84274e-07)
(1.34916 -0.0800319 3.59191e-07)
(1.36503 -0.0728147 2.98326e-07)
(1.37942 -0.0656087 2.50404e-07)
(1.39235 -0.0583922 2.41345e-07)
(1.40385 -0.0511302 2.57137e-07)
(1.41388 -0.043787 3.43411e-07)
(1.42241 -0.0363425 4.07499e-07)
(1.42935 -0.0287944 5.21715e-07)
(1.43468 -0.0211763 5.55538e-07)
(1.4383 -0.0135426 6.61158e-07)
(1.44021 -0.00600196 6.08202e-07)
(1.44033 0.00132986 6.95047e-07)
(1.43879 0.00827036 6.92647e-07)
(1.43553 0.0146668 8.59279e-07)
(1.43086 0.0202835 6.65163e-07)
(1.42479 0.0249948 7.45562e-07)
(1.4178 0.0285536 3.68105e-07)
(1.40992 0.0309394 4.51133e-07)
(1.40184 0.0319114 -9.10409e-08)
(1.39352 0.0316422 7.33399e-08)
(1.38579 0.0298757 -5.3199e-07)
(1.37851 0.0270691 -2.22837e-07)
(1.37251 0.0228647 -7.92637e-07)
(1.3676 0.0181055 -4.03721e-07)
(1.36438 0.0121735 -7.05915e-07)
(1.36281 0.00642179 -6.34962e-07)
(1.36275 -0.000246338 -4.31722e-07)
(1.36499 -0.00584352 -1.20114e-06)
(1.3677 -0.0121598 7.98173e-07)
(1.3738 -0.0165015 -2.16521e-06)
(1.37794 -0.0214621 2.83564e-06)
(1.38773 -0.0238004 -3.80182e-06)
(1.3911 -0.0266148 4.34536e-06)
(1.40457 -0.0268435 -3.09954e-06)
(1.00025 -0.0129272 1.24731e-06)
(1.00617 -0.0384522 -2.06924e-06)
(1.018 -0.0629059 -3.93552e-06)
(1.0356 -0.0854044 -2.89797e-06)
(1.05833 -0.105151 -1.96233e-06)
(1.08533 -0.121448 -1.48525e-06)
(1.11563 -0.133727 -3.31455e-07)
(1.14804 -0.141671 1.35868e-06)
(1.18129 -0.145271 3.37472e-06)
(1.2141 -0.144874 5.23929e-06)
(1.24542 -0.141183 6.15598e-06)
(1.27451 -0.135111 5.7588e-06)
(1.30109 -0.127568 4.3119e-06)
(1.3252 -0.119286 2.5038e-06)
(1.34709 -0.110731 9.91005e-07)
(1.36703 -0.102137 3.10858e-07)
(1.38521 -0.0936016 1.63282e-07)
(1.40178 -0.0851468 1.64111e-07)
(1.41682 -0.0767532 1.2751e-07)
(1.43038 -0.06837 1.25417e-07)
(1.44248 -0.0599328 1.59237e-07)
(1.45306 -0.0513824 2.76535e-07)
(1.46209 -0.0426804 3.56812e-07)
(1.46945 -0.0338156 4.89909e-07)
(1.4751 -0.0248209 5.36081e-07)
(1.47887 -0.0157585 6.70022e-07)
(1.48079 -0.00675928 6.2131e-07)
(1.4807 0.00203332 7.68782e-07)
(1.47876 0.0103943 8.03277e-07)
(1.47487 0.0181217 9.88848e-07)
(1.46939 0.0249201 7.72877e-07)
(1.46229 0.0306231 8.72832e-07)
(1.45418 0.0349218 4.67348e-07)
(1.44503 0.0377797 5.66538e-07)
(1.43569 0.0388982 -2.68909e-08)
(1.42609 0.0384848 1.67471e-07)
(1.41721 0.0362233 -5.10676e-07)
(1.40887 0.0326819 -1.61828e-07)
(1.40209 0.0274127 -8.22271e-07)
(1.39656 0.0214785 -3.45683e-07)
(1.39306 0.0140908 -7.59741e-07)
(1.39142 0.00696967 -5.03597e-07)
(1.39163 -0.00129832 -4.06243e-07)
(1.39436 -0.00816014 -1.10636e-06)
(1.39776 -0.0159425 8.31247e-07)
(1.40482 -0.0211627 -2.08099e-06)
(1.40981 -0.0272128 3.00465e-06)
(1.42086 -0.0298697 -3.79223e-06)
(1.42486 -0.0332479 4.64096e-06)
(1.4398 -0.0332505 -3.19082e-06)
(1.00029 -0.0155417 1.3889e-06)
(1.00708 -0.0462028 -2.19548e-06)
(1.02063 -0.0756297 -4.6811e-06)
(1.04086 -0.102695 -3.45877e-06)
(1.06702 -0.126448 -2.64306e-06)
(1.09817 -0.145975 -2.09514e-06)
(1.13315 -0.160499 -3.67482e-07)
(1.17051 -0.169584 2.12605e-06)
(1.20864 -0.173177 5.2378e-06)
(1.24591 -0.171744 8.02423e-06)
(1.28095 -0.166281 9.08347e-06)
(1.31293 -0.158083 8.04155e-06)
(1.34163 -0.148396 5.52799e-06)
(1.3673 -0.138153 2.45942e-06)
(1.39041 -0.127868 3.84034e-07)
(1.41138 -0.117742 -2.30629e-07)
(1.43049 -0.10782 -2.26004e-07)
(1.4479 -0.098084 -1.7901e-07)
(1.46375 -0.0884748 -2.45353e-07)
(1.47806 -0.0789 -2.65487e-07)
(1.49087 -0.0692549 -2.3306e-07)
(1.5021 -0.0594501 -8.66392e-08)
(1.5117 -0.0494228 8.13676e-09)
(1.5195 -0.03915 1.57865e-07)
(1.52544 -0.028661 2.35201e-07)
(1.52932 -0.0180271 4.43126e-07)
(1.53113 -0.00740509 4.61015e-07)
(1.53068 0.00303351 7.36209e-07)
(1.52813 0.0130104 7.94148e-07)
(1.52334 0.0222571 9.77857e-07)
(1.51672 0.0304103 7.72118e-07)
(1.50824 0.0372492 9.2301e-07)
(1.49858 0.0423955 5.49893e-07)
(1.48775 0.0457836 6.9868e-07)
(1.4767 0.0470549 1.44748e-07)
(1.46537 0.0464467 3.72929e-07)
(1.45493 0.0435865 -3.04288e-07)
(1.44513 0.0391592 7.10893e-08)
(1.43719 0.0326308 -6.1758e-07)
(1.43069 0.025304 -1.36589e-07)
(1.42663 0.0162155 -6.28936e-07)
(1.42464 0.00750043 -3.24191e-07)
(1.42491 -0.00261082 -3.66484e-07)
(1.42787 -0.0109134 -8.25602e-07)
(1.43183 -0.0203538 8.55583e-07)
(1.4395 -0.0265124 -1.70875e-06)
(1.44525 -0.0337557 2.94508e-06)
(1.45703 -0.0366457 -3.41179e-06)
(1.4616 -0.0406101 4.6129e-06)
(1.47721 -0.0401834 -3.00733e-06)
(1.00033 -0.018557 1.55812e-06)
(1.00819 -0.0551104 -2.1326e-06)
(1.02384 -0.0903181 -5.65697e-06)
(1.0473 -0.122686 -4.03893e-06)
(1.07772 -0.151154 -3.77519e-06)
(1.11413 -0.174478 -3.08937e-06)
(1.15509 -0.191595 -6.45687e-07)
(1.19884 -0.201888 3.11715e-06)
(1.24331 -0.205202 8.31381e-06)
(1.28631 -0.202162 1.27795e-05)
(1.32604 -0.194205 1.37955e-05)
(1.36151 -0.183174 1.13122e-05)
(1.39267 -0.170791 6.19443e-06)
(1.4201 -0.158225 1.0307e-06)
(1.44458 -0.145996 -1.34322e-06)
(1.46671 -0.134206 -1.50969e-06)
(1.48685 -0.122814 -1.16062e-06)
(1.50517 -0.111742 -1.04189e-06)
(1.52183 -0.100875 -1.20479e-06)
(1.53687 -0.0900633 -1.28698e-06)
(1.55032 -0.0791536 -1.27049e-06)
(1.56208 -0.0680203 -1.14713e-06)
(1.57209 -0.0565703 -1.07591e-06)
(1.58014 -0.0447664 -9.07754e-07)
(1.58615 -0.0326303 -7.64037e-07)
(1.58987 -0.0202424 -4.27817e-07)
(1.59129 -0.00779522 -1.44881e-07)
(1.59017 0.00452247 3.78961e-07)
(1.58664 0.0163563 3.78839e-07)
(1.58054 0.0273528 5.33077e-07)
(1.57233 0.0370753 4.44325e-07)
(1.56198 0.0452293 7.46309e-07)
(1.55025 0.0513596 5.42734e-07)
(1.53718 0.0553534 8.1164e-07)
(1.52385 0.0567947 4.45868e-07)
(1.51023 0.0559373 7.72018e-07)
(1.49764 0.0523673 2.63321e-07)
(1.48583 0.0468792 6.43215e-07)
(1.47617 0.0388814 3.89232e-08)
(1.46819 0.0299111 4.1767e-07)
(1.46304 0.0188662 -1.64779e-07)
(1.46017 0.00829637 2.69561e-08)
(1.46002 -0.00389545 -3.55293e-08)
(1.46259 -0.0138259 -1.83283e-07)
(1.46664 -0.0250815 9.36787e-07)
(1.47411 -0.0322244 -9.49425e-07)
(1.4802 -0.0407146 2.54884e-06)
(1.49157 -0.0437119 -2.48214e-06)
(1.49642 -0.0482436 4.07716e-06)
(1.51115 -0.0471235 -2.38303e-06)
(1.0004 -0.0220602 1.77649e-06)
(1.00952 -0.0654027 -1.71747e-06)
(1.02769 -0.107419 -6.92075e-06)
(1.05512 -0.145999 -4.44078e-06)
(1.0908 -0.180151 -5.6567e-06)
(1.13384 -0.208048 -4.5527e-06)
(1.18247 -0.228262 -1.56421e-06)
(1.23452 -0.239877 3.93675e-06)
(1.28725 -0.2425 1.26649e-05)
(1.33764 -0.237028 2.01458e-05)
(1.38325 -0.225573 2.12668e-05)
(1.42288 -0.210774 1.6423e-05)
(1.45673 -0.194999 5.8095e-06)
(1.48592 -0.179672 -2.62053e-06)
(1.5117 -0.165226 -5.35805e-06)
(1.53484 -0.151587 -4.61808e-06)
(1.55575 -0.138592 -3.50116e-06)
(1.57461 -0.126084 -3.1817e-06)
(1.59162 -0.113872 -3.39034e-06)
(1.60685 -0.101735 -3.49458e-06)
(1.62033 -0.0894641 -3.49656e-06)
(1.63197 -0.0768935 -3.4115e-06)
(1.64171 -0.0638959 -3.3573e-06)
(1.64934 -0.0504159 -3.17119e-06)
(1.65477 -0.0364627 -2.82379e-06)
(1.65771 -0.0221239 -2.33798e-06)
(1.65815 -0.00763344 -1.53363e-06)
(1.6558 0.00682637 -8.25595e-07)
(1.65075 0.0207801 -1.08198e-06)
(1.64282 0.033784 -9.29266e-07)
(1.6325 0.0453222 -6.98671e-07)
(1.61976 0.0550019 -3.80421e-08)
(1.6054 0.0622829 1.9882e-07)
(1.58953 0.0669816 7.58251e-07)
(1.5733 0.0686317 8.34794e-07)
(1.55677 0.0674814 1.32997e-06)
(1.54132 0.0631043 1.24284e-06)
(1.52684 0.0563784 1.61744e-06)
(1.5147 0.0467118 1.30327e-06)
(1.50452 0.0358384 1.42493e-06)
(1.49745 0.022606 8.16729e-07)
(1.49288 0.00992362 6.3007e-07)
(1.49137 -0.00451911 7.38763e-07)
(1.49254 -0.0162725 9.09989e-07)
(1.49569 -0.0294201 1.21668e-06)
(1.50162 -0.0375845 2.9731e-07)
(1.50711 -0.0472781 1.8442e-06)
(1.51627 -0.0502442 -8.01637e-07)
(1.52077 -0.0552578 2.9872e-06)
(1.53222 -0.0531638 -1.08656e-06)
(1.00048 -0.0261458 2.11463e-06)
(1.01107 -0.0773236 -7.68306e-07)
(1.03227 -0.127456 -8.4684e-06)
(1.06448 -0.17335 -4.36054e-06)
(1.10657 -0.214553 -8.71314e-06)
(1.15805 -0.248082 -6.22764e-06)
(1.21653 -0.272183 -3.24308e-06)
(1.27947 -0.285333 4.92615e-06)
(1.34305 -0.286605 1.8371e-05)
(1.40299 -0.277416 2.91136e-05)
(1.45584 -0.260976 3.02895e-05)
(1.50007 -0.241123 2.15697e-05)
(1.53634 -0.221084 3.7962e-06)
(1.56663 -0.202453 -9.03407e-06)
(1.59279 -0.185398 -1.23086e-05)
(1.61583 -0.169583 -1.02684e-05)
(1.63616 -0.154718 -8.0741e-06)
(1.65404 -0.140563 -7.35594e-06)
(1.66974 -0.12683 -7.29602e-06)
(1.68342 -0.113214 -7.08092e-06)
(1.69518 -0.0994485 -6.87031e-06)
(1.70498 -0.0853241 -6.66074e-06)
(1.71282 -0.0706698 -6.50739e-06)
(1.71853 -0.0554153 -6.11927e-06)
(1.72205 -0.0395196 -5.36622e-06)
(1.72309 -0.0231126 -4.59268e-06)
(1.72166 -0.00643715 -2.80332e-06)
(1.7174 0.0103716 -2.66114e-06)
(1.71026 0.0266574 -3.68683e-06)
(1.70011 0.041904 -3.67223e-06)
(1.68734 0.0555055 -2.97077e-06)
(1.67196 0.0669403 -1.91496e-06)
(1.65468 0.075572 -1.02208e-06)
(1.63574 0.081116 9.3704e-08)
(1.6162 0.0830619 9.53807e-07)
(1.59636 0.0816214 1.69373e-06)
(1.57747 0.0763946 2.26039e-06)
(1.55971 0.0683005 2.55767e-06)
(1.54426 0.0568316 2.79391e-06)
(1.53106 0.0438392 2.47897e-06)
(1.52096 0.0282697 2.16512e-06)
(1.51361 0.0132442 9.17517e-07)
(1.50935 -0.00347977 6.48217e-07)
(1.50769 -0.0172029 1.46877e-06)
(1.50837 -0.0321821 1.49386e-06)
(1.51098 -0.0414094 1.81484e-06)
(1.51428 -0.0521283 9.76673e-07)
(1.51903 -0.0549798 1.72512e-06)
(1.52208 -0.060309 1.53713e-06)
(1.5275 -0.0570614 1.17829e-06)
(1.0006 -0.0309018 2.75888e-06)
(1.0128 -0.0911295 8.82109e-07)
(1.03762 -0.151023 -1.00118e-05)
(1.07543 -0.205536 -3.7581e-06)
(1.12535 -0.255763 -1.38331e-05)
(1.18755 -0.296344 -7.92832e-06)
(1.25864 -0.325594 -5.89423e-06)
(1.336 -0.340657 8.56633e-06)
(1.41398 -0.339641 2.84811e-05)
(1.48629 -0.324737 3.89623e-05)
(1.54745 -0.300837 3.50673e-05)
(1.59548 -0.27386 1.77657e-05)
(1.6321 -0.24828 -6.26348e-06)
(1.66075 -0.225575 -2.07631e-05)
(1.68416 -0.205289 -2.19459e-05)
(1.70357 -0.186736 -1.71664e-05)
(1.71953 -0.169537 -1.3529e-05)
(1.73249 -0.153374 -1.22476e-05)
(1.74295 -0.137852 -1.14115e-05)
(1.75126 -0.122578 -1.02666e-05)
(1.75769 -0.107232 -9.35393e-06)
(1.76236 -0.091547 -8.62764e-06)
(1.76542 -0.0752987 -8.14714e-06)
(1.7668 -0.0583698 -7.14457e-06)
(1.76651 -0.0406478 -5.9422e-06)
(1.76425 -0.0222877 -4.53713e-06)
(1.76008 -0.00332161 -1.4373e-06)
(1.75353 0.0156366 -2.87693e-06)
(1.74428 0.0341977 -4.98689e-06)
(1.73221 0.0517617 -5.54093e-06)
(1.71751 0.0675837 -5.033e-06)
(1.70013 0.0809779 -4.09047e-06)
(1.68056 0.0911883 -2.82109e-06)
(1.65914 0.0977924 -1.54341e-06)
(1.6367 0.100224 1.51049e-07)
(1.61384 0.0986177 1.1243e-06)
(1.59149 0.0926318 2.43311e-06)
(1.5703 0.0831763 2.53721e-06)
(1.551 0.0699205 3.44555e-06)
(1.53412 0.0547326 2.55242e-06)
(1.5199 0.0368462 3.00406e-06)
(1.50869 0.0193546 1.01872e-06)
(1.50005 0.000366763 -5.06506e-07)
(1.49402 -0.0152927 1.53621e-07)
(1.49017 -0.0318295 1.03552e-06)
(1.4877 -0.0421567 2.79348e-06)
(1.48676 -0.0535981 3.16448e-08)
(1.48521 -0.0564031 4.7861e-06)
(1.48537 -0.0618295 5.75393e-08)
(1.48268 -0.0575443 4.43935e-06)
(1.00073 -0.0363789 4.11548e-06)
(1.01464 -0.107105 3.24838e-06)
(1.04378 -0.178716 -1.03821e-05)
(1.08775 -0.243423 -3.66484e-06)
(1.14738 -0.305576 -2.26725e-05)
(1.22294 -0.354938 -1.17845e-05)
(1.30995 -0.39133 -1.35081e-05)
(1.4066 -0.408749 1.41155e-05)
(1.50409 -0.404369 4.7488e-05)
(1.59189 -0.380777 5.54048e-05)
(1.65999 -0.345075 3.23687e-05)
(1.70672 -0.307217 -7.66662e-06)
(1.7366 -0.273793 -3.83627e-05)
(1.7559 -0.245599 -4.49146e-05)
(1.76864 -0.221024 -3.38266e-05)
(1.77643 -0.198928 -2.05801e-05)
(1.78012 -0.178843 -1.37998e-05)
(1.78063 -0.160332 -1.16777e-05)
(1.7789 -0.142868 -9.83292e-06)
(1.77562 -0.125981 -7.70849e-06)
(1.77134 -0.109304 -6.14754e-06)
(1.76643 -0.092472 -5.15871e-06)
(1.76122 -0.0752035 -4.57976e-06)
(1.75579 -0.0572245 -3.49522e-06)
(1.7502 -0.0383759 -2.53031e-06)
(1.74417 -0.0187074 -1.32466e-06)
(1.73742 0.00180381 -1.18025e-06)
(1.72935 0.0224427 -2.4532e-06)
(1.71966 0.042925 -3.82111e-06)
(1.70778 0.0625983 -4.48147e-06)
(1.69347 0.0805938 -4.5715e-06)
(1.67652 0.0960541 -4.50423e-06)
(1.65707 0.108075 -3.83662e-06)
(1.63542 0.11605 -3.20396e-06)
(1.61206 0.119325 -1.67038e-06)
(1.58782 0.117904 -9.87268e-07)
(1.56324 0.111502 7.93688e-07)
(1.53945 0.100966 6.16287e-07)
(1.51665 0.0862107 2.19314e-06)
(1.49609 0.0690316 8.32694e-07)
(1.47721 0.0490974 2.31305e-06)
(1.46134 0.0293311 2.38484e-07)
(1.44717 0.00836558 1.09089e-06)
(1.4357 -0.00918382 -2.03321e-06)
(1.42549 -0.0268819 -4.96061e-07)
(1.41683 -0.0383368 2.32699e-06)
(1.40984 -0.0502039 -1.03343e-06)
(1.40153 -0.0532757 7.32074e-06)
(1.39752 -0.0586622 -1.39953e-06)
(1.38688 -0.0539404 8.46062e-06)
(1.00076 -0.0425533 6.90193e-06)
(1.01666 -0.125584 6.09346e-06)
(1.05044 -0.210918 -6.57164e-06)
(1.10091 -0.288104 -6.30813e-06)
(1.17281 -0.366239 -3.53306e-05)
(1.26387 -0.426284 -2.57661e-05)
(1.3711 -0.473208 -3.78122e-05)
(1.49418 -0.493499 8.45347e-06)
(1.61729 -0.483469 6.48683e-05)
(1.72004 -0.445637 8.41901e-05)
(1.78483 -0.390722 4.31746e-05)
(1.81462 -0.335814 -3.29457e-05)
(1.82031 -0.290567 -8.07396e-05)
(1.81361 -0.25436 -7.42418e-05)
(1.80045 -0.223944 -3.88025e-05)
(1.78289 -0.197595 -9.2332e-06)
(1.76224 -0.174549 1.93926e-06)
(1.74013 -0.154019 4.50206e-06)
(1.718 -0.135251 6.18921e-06)
(1.69687 -0.117702 7.36892e-06)
(1.67749 -0.100907 7.48497e-06)
(1.66039 -0.0843816 6.88832e-06)
(1.64594 -0.0676876 6.08454e-06)
(1.63414 -0.0503272 5.40101e-06)
(1.62487 -0.03207 4.23415e-06)
(1.61752 -0.0126061 3.92078e-06)
(1.61157 0.00787481 1.85674e-06)
(1.60606 0.02915 6.71403e-07)
(1.60021 0.0507566 5.67041e-07)
(1.59305 0.0720034 1.76734e-07)
(1.5838 0.0919228 -5.03797e-07)
(1.57191 0.109483 -1.56359e-06)
(1.55702 0.123588 -2.18824e-06)
(1.53928 0.1334 -3.19272e-06)
(1.51878 0.138116 -3.05961e-06)
(1.49639 0.137555 -3.60615e-06)
(1.47236 0.131446 -2.35578e-06)
(1.44812 0.120529 -3.09432e-06)
(1.42347 0.104955 -1.20123e-06)
(1.40026 0.086417 -2.73962e-06)
(1.37737 0.0650527 -2.32203e-07)
(1.35702 0.0435369 -2.41014e-06)
(1.33711 0.0212415 8.17156e-07)
(1.32009 0.00191713 -3.64385e-06)
(1.30318 -0.0166411 -2.37472e-06)
(1.28876 -0.0293 -2.14399e-09)
(1.27559 -0.041575 -2.04096e-06)
(1.26235 -0.0455127 8.10916e-06)
(1.25426 -0.0510611 -3.01914e-06)
(1.23892 -0.0469214 1.253e-05)
(1.00045 -0.0493247 1.19459e-05)
(1.01911 -0.146804 1.01837e-05)
(1.05634 -0.247441 6.46056e-06)
(1.11435 -0.341224 -1.17791e-05)
(1.20034 -0.439876 -4.33359e-05)
(1.30757 -0.513627 -6.0096e-05)
(1.4428 -0.578039 -8.47537e-05)
(1.60215 -0.602224 -1.30852e-05)
(1.75053 -0.575828 5.00307e-05)
(1.84914 -0.509192 9.66124e-05)
(1.87849 -0.422852 0.000108019)
(1.85787 -0.343818 2.11294e-05)
(1.80686 -0.282354 -6.70804e-05)
(1.74748 -0.235739 -6.7644e-05)
(1.68797 -0.198783 -1.55599e-05)
(1.6303 -0.169067 1.90578e-05)
(1.57583 -0.145036 2.84431e-05)
(1.52639 -0.125076 2.86511e-05)
(1.48321 -0.107992 2.75976e-05)
(1.44681 -0.0930048 2.4909e-05)
(1.41736 -0.0794013 2.12253e-05)
(1.39479 -0.0664604 1.78776e-05)
(1.37882 -0.0534377 1.5211e-05)
(1.36879 -0.0396452 1.27807e-05)
(1.36402 -0.0245292 1.04176e-05)
(1.36324 -0.00761514 7.38423e-06)
(1.36535 0.0111329 4.21321e-06)
(1.36911 0.0316261 5.44853e-06)
(1.37332 0.0534182 6.85272e-06)
(1.37655 0.0757031 6.53747e-06)
(1.37762 0.0973758 5.35673e-06)
(1.37565 0.117203 3.44533e-06)
(1.36994 0.133853 1.65714e-06)
(1.36034 0.14621 -9.38424e-07)
(1.3467 0.153257 -2.55538e-06)
(1.32974 0.154581 -4.8128e-06)
(1.30952 0.149863 -4.96253e-06)
(1.28751 0.139697 -6.5509e-06)
(1.26346 0.124411 -5.07123e-06)
(1.2394 0.105577 -6.6937e-06)
(1.21421 0.0837496 -3.76466e-06)
(1.19061 0.0612909 -5.85548e-06)
(1.16637 0.0382542 -1.5717e-06)
(1.14524 0.0175968 -4.02428e-06)
(1.12386 -0.00194768 -2.5678e-06)
(1.10633 -0.016199 -3.06876e-06)
(1.08979 -0.0293931 -2.40385e-06)
(1.07558 -0.0350062 6.77167e-06)
(1.0657 -0.0413288 -4.25827e-06)
(1.05045 -0.0385855 1.64471e-05)
(0.999746 -0.0565576 1.90375e-05)
(1.02185 -0.170264 2.056e-05)
(1.05912 -0.287441 3.28148e-05)
(1.12717 -0.404351 -1.17778e-05)
(1.22362 -0.526675 -2.4848e-05)
(1.34928 -0.623621 -0.000110668)
(1.52566 -0.717718 -0.000123239)
(1.72539 -0.739446 -3.73566e-05)
(1.86791 -0.666664 1.87944e-05)
(1.89438 -0.536592 4.25707e-05)
(1.81784 -0.399703 0.000151942)
(1.69318 -0.294388 0.000115928)
(1.54191 -0.217874 9.939e-06)
(1.40962 -0.16536 -1.50317e-05)
(1.30074 -0.128091 2.05232e-05)
(1.21225 -0.102932 2.74015e-05)
(1.14195 -0.0864528 1.66104e-05)
(1.0887 -0.0753685 1.08208e-05)
(1.0502 -0.0675767 9.70287e-06)
(1.0239 -0.0616941 8.71483e-06)
(1.00775 -0.0565837 7.64356e-06)
(1.00009 -0.0512626 7.22247e-06)
(0.999553 -0.0448663 7.06752e-06)
(1.00483 -0.0366589 6.98522e-06)
(1.01478 -0.0259787 6.63786e-06)
(1.02814 -0.0124732 5.55609e-06)
(1.04369 0.00414975 4.92072e-06)
(1.06022 0.0239049 7.75571e-06)
(1.07662 0.0459941 9.72708e-06)
(1.09151 0.0695581 9.57242e-06)
(1.10373 0.0933958 8.54731e-06)
(1.11234 0.116074 6.73901e-06)
(1.11653 0.136025 4.6927e-06)
(1.11597 0.151849 1.89114e-06)
(1.11031 0.162302 -5.17365e-07)
(1.10004 0.166715 -3.48918e-06)
(1.08517 0.164668 -4.79169e-06)
(1.06691 0.156584 -7.12367e-06)
(1.04519 0.142885 -6.65715e-06)
(1.02193 0.12499 -8.4769e-06)
(0.996557 0.103703 -6.15489e-06)
(0.971919 0.0810493 -8.17845e-06)
(0.946662 0.0574919 -3.95827e-06)
(0.924833 0.0354423 -6.39038e-06)
(0.903663 0.0143324 -1.11558e-06)
(0.887684 -0.00242179 -5.17148e-06)
(0.872665 -0.0173143 -1.65141e-06)
(0.861555 -0.0252067 4.02969e-06)
(0.852914 -0.0326238 -3.95346e-06)
(0.840593 -0.0310397 2.07658e-05)
(0.999072 -0.0639875 2.62133e-05)
(1.02315 -0.193903 4.16185e-05)
(1.05693 -0.329678 6.50887e-05)
(1.13425 -0.47525 1.23445e-05)
(1.22974 -0.62454 3.42584e-05)
(1.38589 -0.766983 -0.000179707)
(1.60793 -0.896931 -7.17612e-05)
(1.80919 -0.872707 -0.000131581)
(1.85977 -0.781257 5.11086e-05)
(1.74748 -0.535434 -0.000146392)
(1.49579 -0.306777 -0.000106987)
(1.21363 -0.164796 -5.6118e-05)
(0.792131 -0.0551658 -3.73655e-05)
(0.68221 -0.0399043 -2.93857e-05)
(0.62267 -0.0374675 2.87084e-05)
(0.590426 -0.0419639 3.29075e-05)
(0.57647 -0.047989 1.95786e-05)
(0.574781 -0.052954 1.28624e-05)
(0.580218 -0.0565235 7.18648e-06)
(0.589989 -0.0588093 1.61539e-06)
(0.602977 -0.059741 -2.0152e-06)
(0.618695 -0.059037 -3.3919e-06)
(0.636831 -0.0562366 -3.42615e-06)
(0.657052 -0.0507864 -2.59936e-06)
(0.678978 -0.0421263 -1.37818e-06)
(0.702085 -0.0298367 3.66564e-07)
(0.725849 -0.013653 2.5573e-06)
(0.749394 0.00637984 2.93424e-06)
(0.771946 0.0296539 5.88647e-06)
(0.792708 0.0551721 7.67241e-06)
(0.810712 0.0817121 8.19603e-06)
(0.825091 0.107723 7.66322e-06)
(0.835079 0.131479 6.51354e-06)
(0.840189 0.151362 4.43733e-06)
(0.840011 0.165933 2.37707e-06)
(0.834689 0.174283 -3.44082e-07)
(0.824214 0.175859 -2.06963e-06)
(0.809466 0.170874 -4.55817e-06)
(0.790697 0.15971 -5.08285e-06)
(0.769639 0.143531 -7.11928e-06)
(0.746621 0.123151 -5.99275e-06)
(0.724365 0.100244 -7.91968e-06)
(0.702662 0.0755551 -4.85206e-06)