/*--------------------------------*- C++ -*----------------------------------*\
  =========                 |
  \\      /  F ield         | OpenFOAM: The Open Source CFD Toolbox
   \\    /   O peration     | Website:  https://openfoam.org
    \\  /    A nd           | Version:  8
     \\/     M anipulation  |
\*---------------------------------------------------------------------------*/
FoamFile
{
    version     2.0;
    format      ascii;
    class       surfaceScalarField;
    location    "34";
    object      phi;
}
// * * * * * * * * * * * * * * * * * * * * * * * * * * * * * * * * * * * * * //

dimensions      [0 3 -1 0 0 0 0];

internalField   nonuniform List<scalar> 
208
(
1.40515e-05
-1.40515e-05
2.69463e-05
-1.28948e-05
2.73406e-05
-3.94274e-07
4.77665e-06
2.25639e-05
-6.60029e-05
7.07796e-05
6.4668e-05
-0.000130671
-3.35199e-06
-1.06995e-05
-2.04035e-05
4.1567e-06
-5.77231e-05
3.69253e-05
-0.000101093
6.59339e-05
-0.000123996
9.36829e-05
6.58264e-05
-0.000125155
-1.63559e-05
5.65642e-06
-4.37465e-05
3.15474e-05
-7.34826e-05
6.66614e-05
-9.85183e-05
9.09696e-05
-0.000104501
9.96655e-05
5.54017e-05
-9.40763e-05
-1.88712e-05
2.45277e-05
-4.07157e-05
5.33918e-05
-6.19221e-05
8.78678e-05
-7.37067e-05
0.000102754
-6.90854e-05
9.50442e-05
4.02235e-05
-5.39071e-05
-1.25646e-05
3.70922e-05
-2.97603e-05
7.05875e-05
-4.15366e-05
9.96441e-05
-4.44419e-05
0.000105659
-3.9674e-05
9.02763e-05
3.64221e-05
-3.58727e-05
-4.17599e-06
4.12682e-05
-6.30533e-06
7.27169e-05
-7.45606e-06
0.000100795
-7.89475e-06
0.000106098
-6.86897e-06
8.92506e-05
4.16958e-05
-1.21427e-05
5.98048e-06
3.52878e-05
9.11052e-06
6.95868e-05
1.77985e-05
9.21069e-05
3.0123e-05
9.37736e-05
4.38789e-05
7.54946e-05
4.26745e-05
4.29003e-05
1.12381e-05
2.40497e-05
2.90211e-05
5.18038e-05
5.22738e-05
6.88542e-05
7.08785e-05
7.51689e-05
8.7968e-05
5.84052e-05
4.26319e-05
8.80105e-05
-4.0704e-05
6.47537e-05
-2.52356e-05
3.63354e-05
2.46992e-06
4.11487e-05
3.55041e-05
4.21348e-05
6.15325e-05
3.23768e-05
2.62639e-05
7.79005e-05
6.47537e-05
0.000101089
0.000142238
0.000184373
0.000216749
0.000243013
-0.000107251
9.83649e-05
-0.000121785
-6.10804e-05
-4.01701e-05
-6.00011e-06
-2.0587e-05
-4.19628e-05
1.4694e-06
-0.000146903
0.000126316
-9.98195e-05
7.30297e-05
-8.23477e-05
-5.76419e-05
-3.78369e-05
-8.64736e-05
-0.00018474
-6.37532e-05
4.27066e-05
-5.80043e-05
-6.33908e-05
-3.44377e-05
-0.00011004
-0.000219178
-3.04428e-05
1.92423e-05
-2.80338e-05
-6.57998e-05
-1.98675e-05
-0.000118207
-0.000239045
-1.81522e-05
1.52182e-06
-1.71455e-05
-6.68065e-05
-1.50498e-05
-0.000120302
-0.000254095
3.45286e-06
-1.40737e-05
5.41989e-07
-6.38957e-05
-4.83589e-06
-0.000114924
-0.000258931
4.22632e-05
-1.34367e-05
1.83385e-05
-3.99709e-05
1.04594e-06
-9.76318e-05
-0.000257885
7.27451e-05
1.8287e-06
3.98987e-05
-7.12453e-06
2.42028e-05
-8.19359e-05
-0.000233682
7.35234e-05
6.20582e-06
7.1232e-05
-4.83317e-06
6.28119e-05
-7.35157e-05
-0.00017087
0.000249219
0.000244386
0.00017087
-3.61411e-05
3.61411e-05
-6.12582e-05
2.5117e-05
-5.66512e-05
-4.60695e-06
-5.66512e-05
-3.43216e-05
7.04627e-05
-4.37216e-05
3.4517e-05
-4.15808e-05
-6.7477e-06
-9.8232e-05
-2.33738e-05
9.38366e-05
-1.42495e-05
2.53927e-05
-2.34452e-05
2.44803e-06
-0.000121677
-2.79487e-05
-8.55613e-06
-4.63871e-06
)
;

boundaryField
{
    movingWall
    {
        type            calculated;
        value           uniform 0;
    }
    fixedWalls
    {
        type            calculated;
        value           uniform 0;
    }
    frontAndBack
    {
        type            empty;
        value           nonuniform List<scalar> 0();
    }
}


// ************************************************************************* //
