/*--------------------------------*- C++ -*----------------------------------*\
  =========                 |
  \\      /  F ield         | OpenFOAM: The Open Source CFD Toolbox
   \\    /   O peration     | Website:  https://openfoam.org
    \\  /    A nd           | Version:  8
     \\/     M anipulation  |
\*---------------------------------------------------------------------------*/
FoamFile
{
    version     2.0;
    format      ascii;
    class       volScalarField;
    location    "0.125";
    object      p;
}
// * * * * * * * * * * * * * * * * * * * * * * * * * * * * * * * * * * * * * //

dimensions      [0 2 -2 0 0 0 0];

internalField   nonuniform List<scalar> 
400
(
3.35844e-08
-0.00579804
-0.012895
-0.0183111
-0.0203054
-0.0181052
-0.011652
-0.00138968
0.0118904
0.0271527
0.0431956
0.0587254
0.0724418
0.0831473
0.089886
0.0921141
0.0899042
0.0841647
0.0768443
0.0710605
0.00574244
-0.000226985
-0.00578158
-0.00949417
-0.0105327
-0.00835919
-0.00290102
0.0055272
0.016331
0.0287088
0.0417136
0.0543188
0.0654948
0.0743041
0.080013
0.0822205
0.0810058
0.0770149
0.0712679
0.0653414
0.013249
0.00498775
-0.00100965
-0.00441409
-0.00524699
-0.00322878
0.00163819
0.00905605
0.0185164
0.0293447
0.0407399
0.0518243
0.0617078
0.0695678
0.0747399
0.0768226
0.0758073
0.0720797
0.0658334
0.0576025
0.0200089
0.00861827
0.00118428
-0.00268553
-0.00372092
-0.00187231
0.00274948
0.00980165
0.0187908
0.0290945
0.0399783
0.0506274
0.0601962
0.0678747
0.0729649
0.0749751
0.0737601
0.0694787
0.0616637
0.0502134
0.0243427
0.00967557
0.000531779
-0.00401918
-0.00531477
-0.00350541
0.00118585
0.00834971
0.0174764
0.0279588
0.0390874
0.050064
0.0600359
0.068149
0.0736136
0.0757964
0.0743878
0.069337
0.0596138
0.0446831
0.0250134
0.00704952
-0.00386258
-0.00909198
-0.0105263
-0.00849765
-0.00334207
0.00445245
0.0143405
0.0257061
0.0378375
0.0499213
0.0610604
0.0703123
0.0767459
0.0795378
0.0781782
0.0724
0.0606469
0.0420578
0.0209497
-0.000347238
-0.0129827
-0.0187334
-0.0200336
-0.0174
-0.0112896
-0.00227933
0.00903852
0.0220276
0.0359599
0.0499902
0.0631521
0.0743806
0.0825567
0.0866107
0.0857767
0.0795267
0.0657379
0.0432462
0.0110439
-0.01367
-0.0278972
-0.0338558
-0.0345863
-0.0308225
-0.0231614
-0.0122797
0.00118064
0.0165651
0.033134
0.0500107
0.0661533
0.0803526
0.0912591
0.09749
0.0979395
0.091723
0.0760143
0.0492829
-0.00600197
-0.0342716
-0.0498556
-0.0555188
-0.0550443
-0.0494518
-0.0395137
-0.0260179
-0.00964957
0.00893742
0.0290162
0.0497037
0.0698987
0.0882451
0.103129
0.112778
0.11563
0.110281
0.092944
0.0615566
-0.0318162
-0.0638267
-0.08036
-0.0849414
-0.0823423
-0.0739854
-0.0608711
-0.0439104
-0.023812
-0.00118948
0.0232941
0.0488036
0.0742269
0.0980893
0.118499
0.133217
0.140074
0.136904
0.118535
0.0820472
-0.0685485
-0.104499
-0.121245
-0.123489
-0.117408
-0.105006
-0.0875821
-0.0661726
-0.0414698
-0.0139796
0.0157829
0.0471239
0.0790129
0.109933
0.137744
0.159688
0.172814
0.173856
0.155594
0.113645
-0.119214
-0.159204
-0.17478
-0.172629
-0.161018
-0.14279
-0.119606
-0.0926065
-0.0623914
-0.0292515
0.0065711
0.0446641
0.0842302
0.123857
0.161266
0.193192
0.215753
0.224142
0.208098
0.160662
-0.188389
-0.232055
-0.243782
-0.233806
-0.213557
-0.187012
-0.156216
-0.122326
-0.0857057
-0.0462679
-0.0038073
0.0417383
0.0900242
0.139987
0.189449
0.234791
0.271149
0.291713
0.281762
0.229759
-0.283711
-0.329106
-0.331672
-0.308143
-0.274582
-0.236311
-0.195622
-0.153447
-0.109656
-0.0635465
-0.0142345
0.0390593
0.0967313
0.158427
0.222493
0.285376
0.341455
0.381603
0.384904
0.331773
-0.419063
-0.459485
-0.44221
-0.395681
-0.342034
-0.287643
-0.234504
-0.182794
-0.131448
-0.0788049
-0.0230266
0.0376562
0.104715
0.17897
0.25996
0.345036
0.42865
0.499703
0.529637
0.485292
-0.620316
-0.636594
-0.578577
-0.494128
-0.411194
-0.33561
-0.267713
-0.205881
-0.147409
-0.0892317
-0.0282634
0.0385069
0.113947
0.200582
0.30005
0.412064
0.533037
0.651753
0.732709
0.722269
-0.935773
-0.878421
-0.741697
-0.597941
-0.474404
-0.372667
-0.288852
-0.217712
-0.153866
-0.0923463
-0.0285828
0.0418308
0.123383
0.220809
0.338981
0.482172
0.651981
0.841298
1.01519
1.09736
-1.47635
-1.2066
-0.920518
-0.69144
-0.517374
-0.387606
-0.290096
-0.213332
-0.148076
-0.0871307
-0.0244683
0.0455751
0.129046
0.233156
0.367154
0.54269
0.771269
1.05926
1.4032
1.73001
-2.53963
-1.63057
-1.0445
-0.711064
-0.495874
-0.35221
-0.254619
-0.183626
-0.126161
-0.0735393
-0.0191759
0.0429014
0.11933
0.218886
0.354888
0.548022
0.826392
1.23654
1.91161
2.92409
-4.36668
-2.04468
-0.973647
-0.563339
-0.358034
-0.240333
-0.170275
-0.123885
-0.0875173
-0.0534796
-0.0165659
0.027791
0.0847591
0.161881
0.272543
0.442197
0.718273
1.22572
2.411
4.84846
)
;

boundaryField
{
    movingWall
    {
        type            zeroGradient;
    }
    fixedWalls
    {
        type            zeroGradient;
    }
    frontAndBack
    {
        type            empty;
    }
}


// ************************************************************************* //
