/*--------------------------------*- C++ -*----------------------------------*\
  =========                 |
  \\      /  F ield         | OpenFOAM: The Open Source CFD Toolbox
   \\    /   O peration     | Website:  https://openfoam.org
    \\  /    A nd           | Version:  8
     \\/     M anipulation  |
\*---------------------------------------------------------------------------*/
FoamFile
{
    version     2.0;
    format      ascii;
    class       surfaceScalarField;
    location    "0.125";
    object      phi;
}
// * * * * * * * * * * * * * * * * * * * * * * * * * * * * * * * * * * * * * //

dimensions      [0 3 -1 0 0 0 0];

internalField   nonuniform List<scalar> 
760
(
1.41594e-08
-1.416e-08
-2.21003e-08
3.62595e-08
-1.13655e-07
9.15539e-08
-2.44153e-07
1.30498e-07
-3.93921e-07
1.49767e-07
-5.44345e-07
1.50424e-07
-6.79412e-07
1.35068e-07
-7.86292e-07
1.0688e-07
-8.55469e-07
6.91765e-08
-8.80797e-07
2.5328e-08
-8.59645e-07
-2.11523e-08
-7.93143e-07
-6.65011e-08
-6.86488e-07
-1.06655e-07
-5.49174e-07
-1.37314e-07
-3.95003e-07
-1.54172e-07
-2.41622e-07
-1.53381e-07
-1.09269e-07
-1.32353e-07
-1.83748e-08
-9.08951e-08
1.5597e-08
-3.39724e-08
1.55965e-08
-3.4037e-08
1.98781e-08
-1.79396e-07
1.8162e-07
-4.3159e-07
3.43749e-07
-7.60163e-07
4.59072e-07
-1.12584e-06
5.15447e-07
-1.48878e-06
5.13365e-07
-1.81301e-06
4.59296e-07
-2.06876e-06
3.62626e-07
-2.2336e-06
2.34019e-07
-2.29311e-06
8.48415e-08
-2.24139e-06
-7.28714e-08
-2.08159e-06
-2.263e-07
-1.82638e-06
-3.61862e-07
-1.49811e-06
-4.65587e-07
-1.12826e-06
-5.24025e-07
-7.55731e-07
-5.25907e-07
-4.23346e-07
-4.64738e-07
-1.7189e-07
-3.4235e-07
-3.06703e-08
-1.75192e-07
-1.50738e-08
-9.17365e-08
1.11614e-07
-3.55073e-07
4.44955e-07
-7.604e-07
7.49075e-07
-1.26153e-06
9.60206e-07
-1.80469e-06
1.0586e-06
-2.33604e-06
1.04471e-06
-2.80677e-06
9.30028e-07
-3.17622e-06
7.32079e-07
-3.41363e-06
4.71426e-07
-3.49919e-06
1.70399e-07
-3.42485e-06
-1.4721e-07
-3.19502e-06
-4.56125e-07
-2.82711e-06
-7.29776e-07
-2.35157e-06
-9.41125e-07
-1.8111e-06
-1.0645e-06
-1.25823e-06
-1.07877e-06
-7.50871e-07
-9.72096e-07
-3.45324e-07
-7.47898e-07
-8.69263e-08
-4.33588e-07
-1.02e-07
-1.4445e-07
2.56065e-07
-5.22745e-07
8.2325e-07
-1.07605e-06
1.30238e-06
-1.73847e-06
1.62263e-06
-2.44159e-06
1.76173e-06
-3.12005e-06
1.72317e-06
-3.71582e-06
1.5258e-06
-4.18102e-06
1.19728e-06
-4.47956e-06
7.69966e-07
-4.58817e-06
2.79012e-07
-4.49721e-06
-2.38164e-07
-4.21145e-06
-7.41887e-07
-3.75073e-06
-1.1905e-06
-3.15028e-06
-1.54158e-06
-2.46012e-06
-1.75466e-06
-1.7429e-06
-1.79599e-06
-1.06959e-06
-1.64542e-06
-5.12803e-07
-1.30468e-06
-1.38681e-07
-8.0771e-07
-2.40681e-07
-1.92679e-07
4.48744e-07
-6.81796e-07
1.31237e-06
-1.37919e-06
1.99978e-06
-2.19701e-06
2.44044e-06
-3.05122e-06
2.61594e-06
-3.86569e-06
2.53763e-06
-4.57506e-06
2.23517e-06
-5.12658e-06
1.74879e-06
-5.48089e-06
1.12427e-06
-5.61254e-06
4.10669e-07
-5.51053e-06
-3.40178e-07
-5.17901e-06
-1.07341e-06
-4.63831e-06
-1.73119e-06
-3.92588e-06
-2.25401e-06
-3.0965e-06
-2.58403e-06
-2.2212e-06
-2.67129e-06
-1.38393e-06
-2.48269e-06
-6.75733e-07
-2.01288e-06
-1.86993e-07
-1.29645e-06
-4.27674e-07
-2.38962e-07
6.87706e-07
-8.37029e-07
1.91044e-06
-1.67671e-06
2.83945e-06
-2.64668e-06
3.41042e-06
-3.6465e-06
3.61576e-06
-4.58965e-06
3.48078e-06
-5.40496e-06
3.05048e-06
-6.03667e-06
2.38051e-06
-6.44393e-06
1.53153e-06
-6.6002e-06
5.66941e-07
-6.49318e-06
-4.472e-07
-6.12545e-06
-1.44115e-06
-5.51589e-06
-2.34075e-06
-4.70168e-06
-3.06822e-06
-3.74003e-06
-3.54569e-06
-2.70894e-06
-3.70238e-06
-1.70562e-06
-3.486e-06
-8.4176e-07
-2.87674e-06
-2.35358e-07
-1.90285e-06
-6.63032e-07
-2.85839e-07
9.73545e-07
-9.94035e-07
2.61863e-06
-1.97607e-06
3.82148e-06
-3.09551e-06
4.52985e-06
-4.23495e-06
4.75521e-06
-5.29842e-06
4.54425e-06
-6.21078e-06
3.96284e-06
-6.91558e-06
3.0853e-06
-7.3725e-06
1.98845e-06
-7.55521e-06
7.49654e-07
-7.45033e-06
-5.52078e-07
-7.05782e-06
-1.83365e-06
-6.39297e-06
-3.0056e-06
-5.4897e-06
-3.9715e-06
-4.4046e-06
-4.63078e-06
-3.22046e-06
-4.88653e-06
-2.04738e-06
-4.65907e-06
-1.01979e-06
-3.90434e-06
-2.87498e-07
-2.63514e-06
-9.50529e-07
-3.35608e-07
1.30915e-06
-1.15794e-06
3.44097e-06
-2.28323e-06
4.94678e-06
-3.54749e-06
5.79411e-06
-4.81627e-06
6.02399e-06
-5.98599e-06
5.71398e-06
-6.98058e-06
4.95742e-06
-7.74621e-06
3.85094e-06
-8.246e-06
2.48824e-06
-8.45571e-06
9.59369e-07
-8.36145e-06
-6.46346e-07
-7.95953e-06
-2.23557e-06
-7.25905e-06
-3.70608e-06
-6.28681e-06
-4.94374e-06
-5.09428e-06
-5.82331e-06
-3.76503e-06
-6.21578e-06
-2.42016e-06
-6.00394e-06
-1.21839e-06
-5.1061e-06
-3.47034e-07
-3.5065e-06
-1.29756e-06
-3.90506e-07
1.69966e-06
-1.33337e-06
4.38382e-06
-2.60196e-06
6.21537e-06
-4.00118e-06
7.19332e-06
-5.38018e-06
7.403e-06
-6.6313e-06
6.96509e-06
-7.68236e-06
6.00848e-06
-8.48708e-06
4.65566e-06
-9.01614e-06
3.0173e-06
-9.25026e-06
1.19348e-06
-9.17612e-06
-7.20487e-07
-8.7856e-06
-2.62608e-06
-8.07861e-06
-4.41307e-06
-7.06979e-06
-5.95255e-06
-5.79892e-06
-7.09419e-06
-4.34362e-06
-7.67108e-06
-2.83134e-06
-7.51622e-06
-1.44534e-06
-6.4921e-06
-4.17591e-07
-4.53425e-06
-1.71516e-06
-4.53334e-07
2.15299e-06
-1.52526e-06
5.45575e-06
-2.934e-06
7.62411e-06
-4.44864e-06
8.70795e-06
-5.90415e-06
8.8585e-06
-7.19488e-06
8.25583e-06
-8.25999e-06
7.07358e-06
-9.06773e-06
5.46341e-06
-9.60201e-06
3.55158e-06
-9.85239e-06
1.44386e-06
-9.80807e-06
-7.64802e-07
-9.4561e-06
-2.97805e-06
-8.78413e-06
-5.08504e-06
-7.78855e-06
-6.94814e-06
-6.48848e-06
-8.39426e-06
-4.94511e-06
-9.21444e-06
-3.28321e-06
-9.17813e-06
-1.70768e-06
-8.06763e-06
-5.03288e-07
-5.73865e-06
-2.21844e-06
-5.28572e-07
2.68156e-06
-1.74041e-06
6.6676e-06
-3.27936e-06
9.16306e-06
-4.87364e-06
1.03022e-05
-6.34955e-06
1.03344e-05
-7.61373e-06
9.52002e-06
-8.62748e-06
8.08733e-06
-9.38285e-06
6.21878e-06
-9.88403e-06
4.05277e-06
-1.01343e-05
1.69413e-06
-1.01282e-05
-7.70953e-07
-9.84821e-06
-3.258e-06
-9.26731e-06
-5.66594e-06
-8.35711e-06
-7.85834e-06
-7.10501e-06
-9.64636e-06
-5.5407e-06
-1.07788e-05
-3.77055e-06
-1.09483e-05
-2.01201e-06
-9.82617e-06
-6.09621e-07
-7.14104e-06
-2.82806e-06
-6.24242e-07
3.30581e-06
-1.98925e-06
8.03261e-06
-3.63545e-06
1.08093e-05
-5.24726e-06
1.1914e-05
-6.65461e-06
1.17418e-05
-7.793e-06
1.06584e-05
-8.6607e-06
8.95502e-06
-9.28476e-06
6.84284e-06
-9.69731e-06
4.46532e-06
-9.92045e-06
1.91727e-06
-9.95726e-06
-7.34137e-07
-9.7876e-06
-3.42767e-06
-9.36855e-06
-6.08499e-06
-8.64171e-06
-8.58517e-06
-7.55085e-06
-1.07372e-05
-6.07452e-06
-1.22551e-05
-4.27593e-06
-1.27469e-05
-2.36437e-06
-1.17377e-05
-7.44952e-07
-8.76046e-06
-3.57302e-06
-7.54928e-07
4.06073e-06
-2.28713e-06
9.56481e-06
-3.99233e-06
1.25145e-05
-5.5172e-06
1.34389e-05
-6.72045e-06
1.2945e-05
-7.59188e-06
1.15298e-05
-8.1854e-06
9.54855e-06
-8.57443e-06
7.23187e-06
-8.82531e-06
4.7162e-06
-8.98268e-06
2.07463e-06
-9.06128e-06
-6.55531e-07
-9.04125e-06
-3.4477e-06
-8.86607e-06
-6.26016e-06
-8.44585e-06
-9.0054e-06
-7.67127e-06
-1.15118e-05
-6.44774e-06
-1.34786e-05
-4.75966e-06
-1.44349e-05
-2.76833e-06
-1.37291e-05
-9.22848e-07
-1.06059e-05
-4.49586e-06
-9.46229e-07
5.00696e-06
-2.65185e-06
1.12704e-05
-4.31747e-06
1.41801e-05
-5.58327e-06
1.47047e-05
-6.38416e-06
1.37459e-05
-6.8e-06
1.19457e-05
-6.95997e-06
9.70852e-06
-6.99125e-06
7.26316e-06
-6.99551e-06
4.72046e-06
-7.03949e-06
2.11862e-06
-7.15088e-06
-5.44143e-07
-7.31438e-06
-3.2842e-06
-7.46679e-06
-6.10776e-06
-7.49294e-06
-8.97925e-06
-7.22953e-06
-1.17752e-05
-6.49085e-06
-1.42173e-05
-5.13834e-06
-1.57875e-05
-3.21731e-06
-1.56501e-05
-1.16501e-06
-1.26582e-05
-5.66088e-06
-1.23837e-06
6.24533e-06
-3.0868e-06
1.31189e-05
-4.51456e-06
1.56079e-05
-5.24516e-06
1.54353e-05
-5.36985e-06
1.38706e-05
-5.10022e-06
1.1676e-05
-4.65255e-06
9.26085e-06
-4.20344e-06
6.81405e-06
-3.88012e-06
4.39714e-06
-3.76329e-06
2.00179e-06
-3.89078e-06
-4.16656e-07
-4.25658e-06
-2.9184e-06
-4.80333e-06
-5.561e-06
-5.40886e-06
-8.37372e-06
-5.87235e-06
-1.13117e-05
-5.91638e-06
-1.41733e-05
-5.23884e-06
-1.6465e-05
-3.66917e-06
-1.72198e-05
-1.50088e-06
-1.48265e-05
-7.16176e-06
-1.67474e-06
7.92007e-06
-3.51655e-06
1.49607e-05
-4.32168e-06
1.6413e-05
-4.09904e-06
1.52127e-05
-3.20726e-06
1.29788e-05
-2.0169e-06
1.04857e-05
-8.1683e-07
8.06078e-06
1.9484e-07
5.80238e-06
8.91887e-07
3.70009e-06
1.19853e-06
1.69515e-06
1.07546e-06
-2.93578e-07
5.16079e-07
-2.35903e-06
-4.45245e-07
-4.59968e-06
-1.71139e-06
-7.10758e-06
-3.0872e-06
-9.9359e-06
-4.24139e-06
-1.30191e-05
-4.70221e-06
-1.60042e-05
-3.97039e-06
-1.79516e-05
-1.94583e-06
-1.68511e-05
-9.10758e-06
-2.23135e-06
1.01514e-05
-3.59274e-06
1.63221e-05
-3.08294e-06
1.59032e-05
-1.35243e-06
1.34821e-05
8.84709e-07
1.07417e-05
3.13884e-06
8.23155e-06
5.1185e-06
6.08112e-06
6.66624e-06
4.25464e-06
7.70146e-06
2.66487e-06
8.18134e-06
1.21527e-06
8.07898e-06
-1.91222e-07
7.37556e-06
-1.6556e-06
6.06581e-06
-3.28993e-06
4.18135e-06
-5.22312e-06
1.84006e-06
-7.59462e-06
-6.71857e-07
-1.05072e-05
-2.79854e-06
-1.38775e-05
-3.66524e-06
-1.70849e-05
-2.41244e-06
-1.81039e-05
-1.152e-05
-2.57412e-06
1.27255e-05
-2.1849e-06
1.59328e-05
7.14633e-07
1.30036e-05
4.46342e-06
9.73336e-06
8.12397e-06
7.08112e-06
1.1289e-05
5.06657e-06
1.38134e-05
3.55668e-06
1.56699e-05
2.39817e-06
1.68717e-05
1.46305e-06
1.74341e-05
6.52859e-07
1.73558e-05
-1.12909e-07
1.66111e-05
-9.10907e-07
1.51498e-05
-1.82862e-06
1.29088e-05
-2.98212e-06
9.85011e-06
-4.53594e-06
6.05357e-06
-6.71062e-06
1.90706e-06
-9.73098e-06
-1.56224e-06
-1.36156e-05
-2.45909e-06
-1.7207e-05
-1.39791e-05
-7.84983e-07
1.35105e-05
4.08035e-06
1.10675e-05
1.02959e-05
6.78806e-06
1.57902e-05
4.23908e-06
2.01524e-05
2.71896e-06
2.345e-05
1.76892e-06
2.58505e-05
1.15619e-06
2.75094e-05
7.39294e-07
2.85406e-05
4.31804e-07
2.90124e-05
1.8104e-07
2.89484e-05
-4.88563e-08
2.83258e-05
-2.88302e-07
2.70703e-05
-5.73128e-07
2.50454e-05
-9.57199e-07
2.20441e-05
-1.5347e-06
1.78101e-05
-2.47659e-06
1.2169e-05
-4.08993e-06
5.47612e-06
-6.92264e-06
-1.29594e-07
-1.16013e-05
-1.41087e-05
1.35105e-05
2.4578e-05
3.13661e-05
3.56052e-05
3.83241e-05
4.00931e-05
4.12493e-05
4.19885e-05
4.24204e-05
4.26014e-05
4.25525e-05
4.22642e-05
4.16911e-05
4.07339e-05
3.91992e-05
3.67226e-05
3.26327e-05
2.571e-05
1.41087e-05
)
;

boundaryField
{
    movingWall
    {
        type            calculated;
        value           uniform 0;
    }
    fixedWalls
    {
        type            calculated;
        value           uniform 0;
    }
    frontAndBack
    {
        type            empty;
        value           nonuniform List<scalar> 0();
    }
}


// ************************************************************************* //
