/*--------------------------------*- C++ -*----------------------------------*\
  =========                 |
  \\      /  F ield         | OpenFOAM: The Open Source CFD Toolbox
   \\    /   O peration     | Website:  https://openfoam.org
    \\  /    A nd           | Version:  8
     \\/     M anipulation  |
\*---------------------------------------------------------------------------*/
FoamFile
{
    version     2.0;
    format      ascii;
    class       volVectorField;
    location    "0.125";
    object      U;
}
// * * * * * * * * * * * * * * * * * * * * * * * * * * * * * * * * * * * * * //

dimensions      [0 1 -1 0 0 0 0];

internalField   nonuniform List<vector> 
400
(
(0.000252033 -0.000248751 0)
(0.000140285 0.000111017 0)
(-0.00117081 0.000561615 0)
(-0.00346223 0.000880288 0)
(-0.0063425 0.00104018 0)
(-0.00941725 0.00105613 0)
(-0.0123343 0.000952792 0)
(-0.0148026 0.000756467 0)
(-0.0165974 0.000492157 0)
(-0.0175613 0.00018381 0)
(-0.0176059 -0.000144186 0)
(-0.0167149 -0.000465531 0)
(-0.0149509 -0.000751105 0)
(-0.0124608 -0.000968953 0)
(-0.00947901 -0.00108551 0)
(-0.00632474 -0.00106872 0)
(-0.00338554 -0.000894025 0)
(-0.00108245 -0.00055419 0)
(0.00019477 -9.03915e-05 0)
(0.000266412 0.000260942 0)
(-7.73521e-05 -0.000167726 0)
(-0.0016031 0.00163626 0)
(-0.00566178 0.00359733 0)
(-0.0116538 0.00500673 0)
(-0.0187864 0.005711 0)
(-0.0262519 0.00572778 0)
(-0.0332798 0.00514261 0)
(-0.0392035 0.00406979 0)
(-0.0434967 0.00263353 0)
(-0.0457881 0.000962864 0)
(-0.0458722 -0.000806767 0)
(-0.0437192 -0.00253067 0)
(-0.0394859 -0.00405392 0)
(-0.0335236 -0.00521467 0)
(-0.0263758 -0.00585383 0)
(-0.0187594 -0.0058337 0)
(-0.0115102 -0.00506909 0)
(-0.00548738 -0.00357249 0)
(-0.00148655 -0.00155254 0)
(-4.26207e-05 0.000225794 0)
(-0.000526084 0.00108649 0)
(-0.00369166 0.00570519 0)
(-0.0105318 0.0101674 0)
(-0.0198828 0.0133321 0)
(-0.030596 0.0148614 0)
(-0.0415915 0.0147542 0)
(-0.0518313 0.0131803 0)
(-0.0604076 0.0103975 0)
(-0.0665991 0.00670573 0)
(-0.069896 0.00242866 0)
(-0.0700166 -0.00208961 0)
(-0.0669217 -0.00648296 0)
(-0.0608278 -0.0103653 0)
(-0.0522151 -0.0133424 0)
(-0.0418227 -0.0150384 0)
(-0.0306206 -0.0151435 0)
(-0.0197326 -0.0134862 0)
(-0.0103143 -0.010129 0)
(-0.00353201 -0.0055252 0)
(-0.000474753 -0.00094498 0)
(-0.000923506 0.00346189 0)
(-0.00566211 0.0121548 0)
(-0.0152232 0.0198124 0)
(-0.0277732 0.0250581 0)
(-0.0417687 0.0274428 0)
(-0.0558881 0.0269852 0)
(-0.0688924 0.0239738 0)
(-0.0797094 0.0188491 0)
(-0.0874923 0.0121312 0)
(-0.091644 0.00438726 0)
(-0.0918319 -0.00377745 0)
(-0.0880039 -0.0117206 0)
(-0.0804036 -0.018768 0)
(-0.0695819 -0.0242354 0)
(-0.0563984 -0.0274745 0)
(-0.0419973 -0.0279524 0)
(-0.0277288 -0.0253679 0)
(-0.0150255 -0.0197948 0)
(-0.00548032 -0.0118717 0)
(-0.000857765 -0.00321032 0)
(-0.00127281 0.00684253 0)
(-0.00750059 0.0208445 0)
(-0.0197131 0.0323388 0)
(-0.035371 0.0398893 0)
(-0.0524999 0.0430574 0)
(-0.0695351 0.0419646 0)
(-0.0850668 0.0370762 0)
(-0.0979039 0.0290575 0)
(-0.107121 0.018682 0)
(-0.11207 0.0067877 0)
(-0.112382 -0.00573475 0)
(-0.107986 -0.0179417 0)
(-0.0991211 -0.0288416 0)
(-0.0863621 -0.0374227 0)
(-0.0706335 -0.0427155 0)
(-0.0532072 -0.0439029 0)
(-0.0356378 -0.0404792 0)
(-0.0196552 -0.0324391 0)
(-0.00734073 -0.0204968 0)
(-0.00119877 -0.00646917 0)
(-0.00160093 0.0111608 0)
(-0.00928091 0.0317181 0)
(-0.0241147 0.0477137 0)
(-0.0428355 0.0577803 0)
(-0.0630108 0.0616227 0)
(-0.082828 0.059575 0)
(-0.100728 0.0523592 0)
(-0.115437 0.0409186 0)
(-0.125992 0.0263105 0)
(-0.131721 0.00965838 0)
(-0.132236 -0.0078556 0)
(-0.127435 -0.0249817 0)
(-0.117524 -0.0403988 0)
(-0.103054 -0.0527387 0)
(-0.0849621 -0.060658 0)
(-0.0646071 -0.0629743 0)
(-0.0437336 -0.0588686 0)
(-0.024394 -0.0481299 0)
(-0.00922265 -0.0314221 0)
(-0.00153245 -0.0106832 0)
(-0.00193386 0.0164028 0)
(-0.0110869 0.0447715 0)
(-0.0285635 0.0659311 0)
(-0.0503271 0.0786934 0)
(-0.0734608 0.0830546 0)
(-0.0959087 0.0796944 0)
(-0.115992 0.0696916 0)
(-0.132402 0.0543289 0)
(-0.144181 0.0349753 0)
(-0.150673 0.0130416 0)
(-0.151482 -0.0100124 0)
(-0.14647 -0.0326479 0)
(-0.135776 -0.0532212 0)
(-0.119873 -0.0699902 0)
(-0.0996482 -0.0811827 0)
(-0.076488 -0.0851506 0)
(-0.0522972 -0.0806187 0)
(-0.0294654 -0.0670027 0)
(-0.0112533 -0.0447625 0)
(-0.00189497 -0.0158898 0)
(-0.00229506 0.0226039 0)
(-0.0129976 0.0600583 0)
(-0.0331815 0.0870064 0)
(-0.0579579 0.102567 0)
(-0.0838957 0.107207 0)
(-0.108718 0.102119 0)
(-0.13068 0.0888566 0)
(-0.148503 0.0691127 0)
(-0.161304 0.0445889 0)
(-0.168489 0.0169684 0)
(-0.169684 -0.0120493 0)
(-0.164708 -0.0406807 0)
(-0.153597 -0.0669924 0)
(-0.13668 -0.0888708 0)
(-0.114706 -0.104066 0)
(-0.0889965 -0.110348 0)
(-0.0615494 -0.105804 0)
(-0.0350804 -0.0892516 0)
(-0.0135597 -0.0607349 0)
(-0.00232189 -0.0222008 0)
(-0.00270854 0.0298437 0)
(-0.0150908 0.077685 0)
(-0.0380711 0.110959 0)
(-0.0657711 0.129273 0)
(-0.0942123 0.133811 0)
(-0.120947 0.126484 0)
(-0.144256 0.109473 0)
(-0.162995 0.084951 0)
(-0.176447 0.0549631 0)
(-0.184153 0.0214273 0)
(-0.185802 -0.013785 0)
(-0.181174 -0.0487253 0)
(-0.170165 -0.0812407 0)
(-0.152878 -0.108881 0)
(-0.129803 -0.128887 0)
(-0.102056 -0.138329 0)
(-0.0716007 -0.13443 0)
(-0.0414164 -0.115099 0)
(-0.0162684 -0.0796506 0)
(-0.00285128 -0.0298007 0)
(-0.00320688 0.0382502 0)
(-0.0174616 0.0978032 0)
(-0.0433287 0.137771 0)
(-0.0737333 0.158545 0)
(-0.104123 0.162367 0)
(-0.13198 0.152156 0)
(-0.155758 0.130888 0)
(-0.174597 0.101289 0)
(-0.188074 0.0657391 0)
(-0.195965 0.0263223 0)
(-0.198078 -0.0150229 0)
(-0.194175 -0.0563064 0)
(-0.183977 -0.0952743 0)
(-0.16727 -0.129224 0)
(-0.144132 -0.154903 0)
(-0.115272 -0.168569 0)
(-0.0823977 -0.166315 0)
(-0.0486076 -0.144727 0)
(-0.0195172 -0.101895 0)
(-0.00353145 -0.03895 0)
(-0.00384571 0.0480203 0)
(-0.0202552 0.120609 0)
(-0.0490678 0.167335 0)
(-0.0817209 0.189865 0)
(-0.113099 0.192021 0)
(-0.140802 0.178094 0)
(-0.163683 0.152053 0)
(-0.181373 0.117235 0)
(-0.193909 0.0763097 0)
(-0.20142 0.0314207 0)
(-0.203909 -0.0155747 0)
(-0.201153 -0.0628157 0)
(-0.192681 -0.108126 0)
(-0.177878 -0.148706 0)
(-0.156234 -0.180892 0)
(-0.127782 -0.200072 0)
(-0.0936417 -0.200929 0)
(-0.0567293 -0.178166 0)
(-0.0234774 -0.1279 0)
(-0.00443488 -0.0500033 0)
(-0.00472952 0.0594711 0)
(-0.0237165 0.146352 0)
(-0.055436 0.199363 0)
(-0.0894656 0.222314 0)
(-0.120247 0.221379 0)
(-0.145834 0.202686 0)
(-0.165815 0.171395 0)
(-0.180575 0.131461 0)
(-0.190797 0.0857465 0)
(-0.197081 0.0362984 0)
(-0.199712 -0.0152968 0)
(-0.198529 -0.0675239 0)
(-0.192886 -0.118521 0)
(-0.181713 -0.165635 0)
(-0.163751 -0.204986 0)
(-0.13804 -0.231145 0)
(-0.10464 -0.237144 0)
(-0.0657555 -0.215127 0)
(-0.0283848 -0.158099 0)
(-0.00568296 -0.0634521 0)
(-0.00605767 0.0731429 0)
(-0.0282581 0.175331 0)
(-0.0625878 0.233221 0)
(-0.0963915 0.254317 0)
(-0.124048 0.248264 0)
(-0.144642 0.223565 0)
(-0.158961 0.186694 0)
(-0.168433 0.142135 0)
(-0.17455 0.0927565 0)
(-0.178476 0.0402997 0)
(-0.180835 -0.0141385 0)
(-0.181594 -0.0696273 0)
(-0.179989 -0.1249 0)
(-0.174518 -0.177778 0)
(-0.16309 -0.224515 0)
(-0.143457 -0.259114 0)
(-0.114027 -0.272884 0)
(-0.0754398 -0.254697 0)
(-0.0345727 -0.192839 0)
(-0.0074887 -0.0800102 0)
(-0.00819928 0.0899803 0)
(-0.0345215 0.207832 0)
(-0.070508 0.267593 0)
(-0.101188 0.283241 0)
(-0.12181 0.269408 0)
(-0.133413 0.237438 0)
(-0.138529 0.19504 0)
(-0.139878 0.146942 0)
(-0.139816 0.0957168 0)
(-0.140059 0.0425429 0)
(-0.141569 -0.0121879 0)
(-0.144491 -0.0683451 0)
(-0.148062 -0.125529 0)
(-0.150506 -0.182425 0)
(-0.148989 -0.235929 0)
(-0.139841 -0.280036 0)
(-0.119223 -0.304637 0)
(-0.0850044 -0.294834 0)
(-0.0424652 -0.232155 0)
(-0.0102199 -0.100753 0)
(-0.0117748 0.111591 0)
(-0.0432998 0.243823 0)
(-0.0783976 0.29981 0)
(-0.100803 0.304803 0)
(-0.108606 0.280134 0)
(-0.106064 0.240052 0)
(-0.0979338 0.192979 0)
(-0.0882345 0.143304 0)
(-0.0800068 0.0928719 0)
(-0.0753128 0.042026 0)
(-0.0753295 -0.00969772 0)
(-0.0803937 -0.063084 0)
(-0.0899208 -0.118779 0)
(-0.102183 -0.17668 0)
(-0.114005 -0.234966 0)
(-0.120542 -0.288549 0)
(-0.115419 -0.32688 0)
(-0.0923512 -0.331528 0)
(-0.052347 -0.275221 0)
(-0.0144354 -0.127278 0)
(-0.0175554 0.140635 0)
(-0.0548002 0.282056 0)
(-0.0828783 0.324562 0)
(-0.0882446 0.312263 0)
(-0.0753526 0.274212 0)
(-0.0529167 0.226518 0)
(-0.0278606 0.177056 0)
(-0.00498153 0.128945 0)
(0.0125841 0.0827841 0)
(0.0228987 0.0378906 0)
(0.0248545 -0.00705358 0)
(0.0179846 -0.0536658 0)
(0.00250081 -0.103596 0)
(-0.0204129 -0.158115 0)
(-0.0480247 -0.217266 0)
(-0.0752389 -0.278114 0)
(-0.0937161 -0.331556 0)
(-0.0921568 -0.357484 0)
(-0.0633155 -0.319157 0)
(-0.0206395 -0.161922 0)
(-0.0254536 0.181703 0)
(-0.0658007 0.317723 0)
(-0.0734053 0.331267 0)
(-0.048212 0.295264 0)
(-0.00578645 0.244048 0)
(0.0409328 0.192208 0)
(0.0842926 0.144887 0)
(0.120111 0.10284 0)
(0.146228 0.0650482 0)
(0.161545 0.0298516 0)
(0.165433 -0.00465933 0)
(0.157445 -0.040567 0)
(0.137281 -0.0801428 0)
(0.105047 -0.125782 0)
(0.0619401 -0.17957 0)
(0.0115626 -0.241858 0)
(-0.0379934 -0.307723 0)
(-0.0717701 -0.360012 0)
(-0.0700901 -0.356519 0)
(-0.0279182 -0.208343 0)
(-0.0296499 0.239179 0)
(-0.0608548 0.335749 0)
(-0.0219876 0.300456 0)
(0.0504486 0.240053 0)
(0.127419 0.182857 0)
(0.196788 0.135291 0)
(0.254051 0.0973071 0)
(0.297907 0.0667758 0)
(0.328437 0.0413044 0)
(0.346054 0.0187563 0)
(0.350956 -0.00278674 0)
(0.342897 -0.0252301 0)
(0.321096 -0.0507295 0)
(0.284317 -0.0819728 0)
(0.231306 -0.122361 0)
(0.16198 -0.175581 0)
(0.0797649 -0.243348 0)
(-0.00326534 -0.319067 0)
(-0.0546982 -0.368566 0)
(-0.0284642 -0.267603 0)
(0.00808477 0.281867 0)
(0.0197817 0.29497 0)
(0.139048 0.210958 0)
(0.264412 0.14345 0)
(0.364278 0.0971504 0)
(0.440226 0.0657389 0)
(0.496557 0.0442013 0)
(0.536646 0.0288568 0)
(0.563187 0.0171797 0)
(0.578027 0.00747721 0)
(0.582098 -0.00148997 0)
(0.575423 -0.0108305 0)
(0.55706 -0.0218237 0)
(0.52492 -0.0363056 0)
(0.475602 -0.0572272 0)
(0.404406 -0.0893514 0)
(0.305089 -0.139711 0)
(0.173369 -0.216362 0)
(0.0411553 -0.31164 0)
(0.018428 -0.299992 0)
(0.299606 0.146093 0)
(0.396277 0.127505 0)
(0.557421 0.0760882 0)
(0.674478 0.043719 0)
(0.743862 0.0255659 0)
(0.787106 0.0152354 0)
(0.815418 0.00920602 0)
(0.83387 0.00550451 0)
(0.845287 0.00302426 0)
(0.851267 0.00114862 0)
(0.852561 -0.000498005 0)
(0.849282 -0.00221189 0)
(0.84091 -0.00433404 0)
(0.826065 -0.00741875 0)
(0.802019 -0.0125266 0)
(0.763578 -0.0217674 0)
(0.699082 -0.0392781 0)
(0.58394 -0.0726564 0)
(0.415824 -0.127866 0)
(0.30882 -0.149468 0)
)
;

boundaryField
{
    movingWall
    {
        type            fixedValue;
        value           uniform (1 0 0);
    }
    fixedWalls
    {
        type            noSlip;
    }
    frontAndBack
    {
        type            empty;
    }
}


// ************************************************************************* //
