/*--------------------------------*- C++ -*----------------------------------*\
  =========                 |
  \\      /  F ield         | OpenFOAM: The Open Source CFD Toolbox
   \\    /   O peration     | Website:  https://openfoam.org
    \\  /    A nd           | Version:  8
     \\/     M anipulation  |
\*---------------------------------------------------------------------------*/
FoamFile
{
    version     2.0;
    format      ascii;
    class       volScalarField;
    location    "0.525";
    object      T;
}
// * * * * * * * * * * * * * * * * * * * * * * * * * * * * * * * * * * * * * //

dimensions      [0 0 0 1 0 0 0];

internalField   nonuniform List<scalar> 
10000
(
50
4.65083
-4.65066
-1.17959
1.17882
0.450754
-0.448478
-0.220647
0.215573
0.129799
-0.120281
-0.0889922
0.0731887
0.0692099
-0.0453631
-0.0588394
0.0256978
0.0522364
-0.00961919
-0.0461222
-0.00446027
0.0384227
0.0164297
-0.0280367
-0.0251239
0.0149845
0.0289205
-0.000609479
-0.0265101
-0.0124701
0.0178087
0.0209349
-0.00471752
-0.0219742
-0.00876718
0.014869
0.0175769
-0.0022041
-0.017767
-0.0103334
0.00907278
0.0162551
0.00384837
-0.012103
-0.0131615
0.000546732
0.0126557
0.0102325
-0.00284799
-0.0119897
-0.00820037
0.00351475
0.0108663
0.00716593
-0.00300708
-0.00956524
-0.0069051
0.0016569
0.00803412
0.00701779
0.000266247
-0.00606788
-0.00698222
-0.00240404
0.0035216
0.00623246
0.0041795
-0.000563306
-0.004375
-0.00483842
-0.00213392
0.0015569
0.00381603
0.00352002
0.00126115
-0.00136342
-0.00285395
-0.00263721
-0.0011311
0.000653266
0.00182931
0.00194843
0.00122348
0.000103009
-0.000791909
-0.00123197
-0.00106596
-0.00061159
6.76019e-06
0.000411933
0.000644139
0.000567217
0.000381751
0.000110169
-0.000123174
-0.000243467
-0.000333362
-0.000233282
-0.000230954
-1.01792e-05
95.3492
49.9999
10.481
-4.65011
-2.80898
1.1769
1.11964
-0.443924
-0.565791
0.206745
0.338922
-0.105337
-0.231411
0.050336
0.173706
-0.0132669
-0.13743
-0.0159671
0.109041
0.0403049
-0.0815072
-0.0591748
0.0516347
0.0701586
-0.0193621
-0.0703502
-0.012426
0.0579207
0.0384341
-0.0338065
-0.0524178
0.00293272
0.0497229
0.0259539
-0.030315
-0.0426526
0.000828164
0.0399933
0.0263054
-0.0187281
-0.0377925
-0.0104224
0.0271895
0.0306999
-0.000890165
-0.029191
-0.0234025
0.00718893
0.0279024
0.0180509
-0.00948354
-0.0254088
-0.0151263
0.00892203
0.0226116
0.0142527
-0.00632932
-0.01954
-0.0146297
0.0022695
0.0157379
0.0151708
0.00263515
-0.0106956
-0.0145926
-0.00734057
0.00438876
0.0117394
0.0102594
0.0021731
-0.00630989
-0.00976677
-0.00684719
-0.000302807
0.00547935
0.00738509
0.00505007
0.000484249
-0.00357478
-0.00520214
-0.004134
-0.00139227
0.00139596
0.00307628
0.00313637
0.00202718
0.000362426
-0.000977637
-0.00173246
-0.0016632
-0.00116503
-0.000389807
0.000233761
0.000658271
0.000779176
0.000683283
0.000482154
0.000204837
2.59417e-05
-0.000219804
104.651
89.519
49.9998
12.1103
-4.64897
-3.47779
1.17346
1.46481
-0.436526
-0.775182
0.1935
0.48202
-0.0843319
-0.337162
0.0200235
0.254243
0.0269926
-0.196877
-0.065256
0.147578
0.0955489
-0.0979448
-0.114859
0.0455764
0.118712
0.00685428
-0.103513
-0.0523758
0.0691503
0.0815524
-0.0212464
-0.0859372
-0.0282317
0.0627115
0.0634072
-0.018715
-0.070479
-0.0290037
0.0455943
0.0586148
-0.000289831
-0.0545532
-0.0408866
0.0189683
0.0529468
0.0253643
-0.0280241
-0.0472756
-0.0150389
0.0304228
0.0413865
0.0100496
-0.0287264
-0.0367567
-0.00942091
0.0243968
0.0332747
0.0118651
-0.0179813
-0.0298882
-0.0158847
0.00969293
0.0251197
0.019582
-0.000169171
-0.017716
-0.0206523
-0.00883537
0.00761915
0.0170655
0.0143741
0.00305378
-0.0086117
-0.0136092
-0.010137
-0.00158919
0.006494
0.00992407
0.00783883
0.00232797
-0.0032583
-0.00635617
-0.00608292
-0.00337081
0.000151376
0.0027901
0.0038512
0.00323263
0.00174637
9.63066e-06
-0.00118786
-0.00174922
-0.00161625
-0.00109871
-0.000499517
6.34677e-05
0.000339028
0.000491359
0.000473295
0.000351356
101.18
104.65
87.8897
49.9997
12.7791
-4.64704
-3.82308
1.16809
1.67465
-0.425751
-0.919288
0.175245
0.589594
-0.056759
-0.420538
-0.0179465
0.317604
0.0750147
-0.240205
-0.120873
0.169128
0.153729
-0.0963759
-0.16812
0.0220034
0.158213
0.0471741
-0.121308
-0.0994514
0.061327
0.122006
0.00908446
-0.106733
-0.06979
0.0565842
0.0992154
0.0109603
-0.0844843
-0.0673019
0.0313528
0.0847841
0.033266
-0.0535044
-0.0722191
-0.00761366
0.060768
0.0574808
-0.00751928
-0.0597263
-0.0459133
0.0137189
0.0550294
0.0390465
-0.0132987
-0.0488712
-0.0362968
0.00812966
0.0415495
0.0359692
0.000333939
-0.0323146
-0.0356716
-0.0104328
0.0203711
0.0326504
0.0196067
-0.00608208
-0.0246421
-0.0242994
-0.00792868
0.0115094
0.0212672
0.0168361
0.00311843
-0.0104162
-0.0161879
-0.0124246
-0.0028387
0.00655801
0.0111734
0.00974133
0.00422838
-0.00205742
-0.00616926
-0.00697544
-0.00486404
-0.00150501
0.00164863
0.00335126
0.00359613
0.00253499
0.00111097
-0.000281499
-0.00109425
-0.00131628
-0.00117742
-0.000615762
-0.000344661
0.000147656
0.000132165
98.821
102.809
104.65
87.2209
49.9995
13.1245
-4.64412
-4.03333
1.16042
1.8198
-0.411097
-1.02887
0.151456
0.676262
-0.0222442
-0.48865
-0.0635511
0.367046
0.130088
-0.268706
-0.181162
0.174289
0.212161
-0.0777732
-0.215511
-0.0168097
0.185211
0.0974624
-0.121525
-0.147829
0.0348928
0.153493
0.0531614
-0.110212
-0.114542
0.0308941
0.125302
0.0537339
-0.0794905
-0.105042
-0.00156074
0.0961553
0.073955
-0.0319351
-0.0938372
-0.0465051
0.0483459
0.0840731
0.0281267
-0.0528553
-0.0737328
-0.0191491
0.0499926
0.0654855
0.0178768
-0.0423715
-0.0591717
-0.0220255
0.0310044
0.0529577
0.0289211
-0.0163253
-0.0442639
-0.0351831
-0.000473521
0.0309302
0.0367401
0.0162341
-0.0129361
-0.0300606
-0.025739
-0.00589745
0.0148858
0.024052
0.0181994
0.00316075
-0.011248
-0.0175428
-0.0140157
-0.00434547
0.00562413
0.0111797
0.0108356
0.00600978
-0.000170753
-0.00496731
-0.00676046
-0.00576417
-0.00296015
1.79889e-05
0.00227375
0.00308831
0.00284992
0.00173892
0.000584464
-0.000426817
-0.000997182
-0.000976644
-0.000978091
-0.000242048
99.5494
98.8226
103.478
104.648
86.8755
49.9992
13.335
-4.64001
-4.17934
1.15009
1.93125
-0.3921
-1.11884
0.121685
0.749458
0.0194446
-0.545044
-0.116543
0.403999
0.191205
-0.282821
-0.244155
0.163467
0.267966
-0.0434229
-0.253712
-0.0679751
0.196916
0.153008
-0.103242
-0.191628
-0.00797746
0.170666
0.105382
-0.0939462
-0.154791
-0.0118998
0.135009
0.102255
-0.0536897
-0.133012
-0.048004
0.0869992
0.111712
0.00787271
-0.0970946
-0.0878302
0.0153897
0.0945947
0.0694829
-0.0246268
-0.0868107
-0.0588381
0.0236045
0.0771006
0.0548502
-0.0152532
-0.0658269
-0.0548177
0.00176798
0.0516988
0.0549832
0.0143746
-0.033323
-0.0509957
-0.0292767
0.0110832
0.0391818
0.0373912
0.0110869
-0.0190925
-0.0334852
-0.0256712
-0.00383304
0.0170753
0.0254662
0.0189526
0.00368727
-0.0109003
-0.0177016
-0.0150593
-0.00612267
0.00370099
0.0100386
0.0109718
0.00752034
0.00199883
-0.00286534
-0.00562225
-0.00575459
-0.00409159
-0.00157588
0.000633685
0.00208969
0.00246295
0.0022
0.00132483
0.00056992
-0.000209828
-0.000716668
100.449
98.8804
98.8257
103.823
104.646
86.6649
49.9989
13.4815
-4.63452
-4.29223
1.13675
2.02413
-0.368331
-1.19693
0.0855672
0.813042
0.0683919
-0.591379
-0.176453
0.428917
0.257077
-0.28262
-0.307634
0.13718
0.318198
0.00492357
-0.279713
-0.128002
0.191402
0.208732
-0.0669432
-0.225316
-0.0635081
0.169612
0.159085
-0.0579432
-0.183226
-0.0667217
0.124012
0.147856
-0.0089623
-0.143363
-0.0997316
0.0556652
0.136407
0.0590249
-0.077315
-0.120171
-0.0326133
0.0822089
0.104355
0.0202819
-0.0771222
-0.0924747
-0.0192549
0.0657544
0.0840355
0.0261852
-0.0493388
-0.0761947
-0.0373186
0.0281789
0.0650162
0.0478993
-0.00361849
-0.0470497
-0.0520254
-0.0201072
0.0217885
0.0442681
0.0355151
0.00570726
-0.0236069
-0.0350162
-0.0248428
-0.00246505
0.0177992
0.025629
0.0193755
0.00484537
-0.00931726
-0.0166852
-0.0153851
-0.0079877
0.00109928
0.00771663
0.0100451
0.00817949
0.0040742
-0.000389789
-0.00346727
-0.00470117
-0.00421809
-0.00269922
-0.00101972
0.000453015
0.0012539
0.00148639
0.00148512
0.000894361
100.221
100.445
98.5351
98.8305
104.034
104.642
86.5183
49.9985
13.5952
-4.62748
-4.38729
1.12007
2.10642
-0.339404
-1.26731
0.0428225
0.868962
0.124533
-0.628266
-0.242591
0.441752
0.326171
-0.268101
-0.369203
0.0962312
0.359966
0.06499
-0.290996
-0.192886
0.167764
0.25946
-0.01454
-0.244118
-0.126595
0.148225
0.207192
-0.00468411
-0.193787
-0.126481
0.0909567
0.181802
0.0493366
-0.130976
-0.146795
0.00502697
0.1399
0.111327
-0.0350206
-0.133247
-0.085512
0.0458008
0.121048
0.0714667
-0.0429984
-0.107576
-0.0672878
0.0305918
0.09293
0.0691169
-0.0112586
-0.0749018
-0.0717776
-0.0120775
0.0510295
0.0691704
0.0345
-0.0211454
-0.0557872
-0.0484986
-0.0100146
0.0301443
0.0463418
0.0323056
0.00121095
-0.0261416
-0.0350145
-0.0238276
-0.00211149
0.0170417
0.0246899
0.0194633
0.00651547
-0.00675775
-0.014487
-0.01484
-0.00934746
-0.0017394
0.00474967
0.00789471
0.00775242
0.00509419
0.00178132
-0.00115523
-0.00279681
-0.00311816
-0.00265768
-0.00142836
-0.000708273
0.000297648
0.000412602
99.7841
100.566
100.438
98.325
98.8376
104.18
104.637
86.4045
49.9981
13.6915
-4.6187
-4.47269
1.09974
2.18257
-0.304971
-1.33222
-0.00674305
0.918085
0.187652
-0.655726
-0.314063
0.442234
0.396743
-0.239363
-0.42637
0.0418035
0.390574
0.133981
-0.28568
-0.258264
0.126222
0.300227
0.0507176
-0.24439
-0.191198
0.106434
0.2429
0.0610941
-0.182403
-0.182925
0.0377209
0.196576
0.113104
-0.094407
-0.179247
-0.0578735
0.117768
0.153286
0.0239185
-0.120395
-0.130741
-0.00938604
0.111597
0.115398
0.0099335
-0.0959926
-0.106003
-0.0211087
0.0746554
0.0984184
0.0382829
-0.0472402
-0.0870501
-0.0555644
0.0146319
0.0666629
0.0652369
0.0184081
-0.0355144
-0.0595049
-0.0422806
-0.000864565
0.0355833
0.0460983
0.0288466
-0.0017786
-0.0267403
-0.0339079
-0.0229423
-0.00282435
0.0150147
0.0227524
0.0191824
0.00830796
-0.00354379
-0.0114767
-0.0132668
-0.00997424
-0.00400795
0.00163482
0.00532619
0.00622581
0.00516345
0.00279303
0.000571884
-0.00120837
-0.0020058
-0.00187912
-0.00166484
-0.000395795
99.8703
99.7925
100.776
100.427
98.1796
98.8472
104.293
104.631
86.3082
49.9977
13.7786
-4.608
-4.55307
1.07545
2.2551
-0.264727
-1.39283
-0.0632348
0.960634
0.257387
-0.67345
-0.389781
0.430038
0.466876
-0.196722
-0.476627
-0.0244882
0.407634
0.208635
-0.262653
-0.319596
0.0681512
0.326579
0.124417
-0.223922
-0.250813
0.0462672
0.260367
0.132839
-0.147531
-0.227628
-0.0307146
0.187005
0.172621
-0.0363002
-0.188877
-0.122911
0.0703671
0.174407
0.0892384
-0.0803327
-0.156186
-0.0726385
0.0741424
0.138943
0.0698306
-0.0567129
-0.122041
-0.0756726
0.0307822
0.101876
0.0836081
0.000860305
-0.0743168
-0.085714
-0.0328356
0.0378466
0.0741768
0.0558788
0.00281817
-0.0454959
-0.0592208
-0.035233
0.00617907
0.0381693
0.0443649
0.025897
-0.00300162
-0.0256272
-0.0319761
-0.022329
-0.00442494
0.011875
0.0199895
0.0183167
0.0100234
-0.000179769
-0.00780621
-0.0109564
-0.00961399
-0.00564079
-0.00101882
0.00255179
0.00436357
0.00437642
0.00337261
0.00161555
0.000375106
-0.000917171
-0.00132614
100.121
99.6609
99.8052
100.92
100.413
98.0677
98.8598
104.388
104.623
86.2209
49.9972
13.8613
-4.59521
-4.63117
1.04691
2.32547
-0.218408
-1.44966
-0.126667
0.996448
0.333226
-0.680964
-0.468479
0.404904
0.53453
-0.140788
-0.517536
-0.100584
0.40919
0.285311
-0.221664
-0.37238
-0.00393966
0.334874
0.201241
-0.182165
-0.298996
-0.0282528
0.255323
0.20281
-0.0904516
-0.253039
-0.106778
0.151125
0.217938
0.0368062
-0.170726
-0.178518
0.00308512
0.16739
0.148153
-0.0178382
-0.153071
-0.129985
0.0139056
0.132948
0.121451
0.00321884
-0.107382
-0.116838
-0.0284294
0.0746861
0.108628
0.055171
-0.0344455
-0.0892708
-0.0741276
-0.00891005
0.054825
0.0746961
0.044103
-0.010118
-0.0510301
-0.0563317
-0.0287732
0.0105983
0.0382835
0.0417733
0.0238391
-0.00252554
-0.0229772
-0.0293489
-0.0217571
-0.00669703
0.00795592
0.016253
0.0167521
0.011055
0.00312133
-0.00392347
-0.00773957
-0.00822189
-0.00618848
-0.00296156
-0.000145789
0.00203143
0.00272628
0.00267892
0.00218062
0.00098413
100.089
100.106
99.5173
99.8229
101.03
100.395
97.9744
98.8757
104.474
104.614
86.1381
49.9966
13.9424
-4.58016
-4.70866
1.01386
2.39446
-0.165798
-1.50278
-0.196958
1.02513
0.414512
-0.677737
-0.54873
0.366715
0.597589
-0.0725104
-0.54682
-0.183998
0.393823
0.360109
-0.16339
-0.412388
-0.086495
0.322552
0.275302
-0.120343
-0.329917
-0.111383
0.225586
0.262853
-0.0152662
-0.253475
-0.181165
0.0906624
0.240375
0.115268
-0.124161
-0.213673
-0.074304
0.129842
0.187855
0.0568031
-0.11829
-0.167326
-0.0575162
0.0950537
0.1501
0.070003
-0.0622912
-0.130656
-0.0865703
0.0218208
0.102532
0.097608
0.0213871
-0.0618897
-0.0926203
-0.0568449
0.0122418
0.0649321
0.0703571
0.0324268
-0.0193651
-0.0527669
-0.0521187
-0.0237375
0.0124036
0.0363686
0.0387053
0.0225978
-0.000613667
-0.0191108
-0.0258742
-0.0209337
-0.00893134
0.00353052
0.0119035
0.0139879
0.0111217
0.00533747
-0.000241345
-0.0042801
-0.00577296
-0.00521117
-0.00366302
-0.00130832
-0.000151047
0.00138598
0.00113193
99.9263
100.232
100.086
99.4091
99.8461
101.121
100.372
97.8914
98.8952
104.555
104.602
86.0568
49.996
14.0237
-4.56268
-4.78658
0.976041
2.46246
-0.106727
-1.55205
-0.273934
1.04615
0.500452
-0.663256
-0.628978
0.31556
0.653919
0.00679952
-0.562453
-0.271866
0.360745
0.429025
-0.0894508
-0.435906
-0.175078
0.288355
0.340546
-0.0414486
-0.338891
-0.196113
0.171387
0.305274
0.0714152
-0.225944
-0.243977
0.0110253
0.233921
0.18767
-0.0532992
-0.219916
-0.149158
0.0651495
0.198207
0.129615
-0.0556028
-0.173847
-0.124538
0.0309184
0.145758
0.126467
0.00400028
-0.110098
-0.125888
-0.0427525
0.0641119
0.112533
0.0750121
-0.0106835
-0.0792105
-0.0871905
-0.0381563
0.028433
0.0689906
0.0634408
0.0225394
-0.0247761
-0.0516154
-0.0475414
-0.0203994
0.0118943
0.032916
0.0352389
0.0219381
0.00213478
-0.0142953
-0.0217191
-0.0193191
-0.0107313
-0.000479171
0.00715884
0.0106371
0.00974795
0.00646319
0.00210979
-0.00120286
-0.0033862
-0.00380154
-0.00309454
-0.00223111
-0.000239039
99.9307
99.9487
100.338
100.059
99.3217
99.8753
101.2
100.344
97.8146
98.9186
104.634
104.588
85.9752
49.9954
14.1065
-4.54262
-4.86556
0.933213
2.52961
-0.0410737
-1.59711
-0.357329
1.05891
0.590125
-0.637081
-0.707565
0.251763
0.701431
0.0954724
-0.562743
-0.361023
0.309864
0.48812
-0.00237257
-0.439955
-0.264599
0.232461
0.391181
0.0499215
-0.322839
-0.274756
0.0954726
0.323687
0.161102
-0.170672
-0.285991
-0.0792245
0.196302
0.242509
0.0333598
-0.193028
-0.208113
-0.0177669
0.174027
0.185677
0.0246868
-0.144849
-0.171158
-0.0466121
0.106186
0.15668
0.0753137
-0.0577843
-0.1329
-0.100041
0.0029419
0.0926176
0.107575
0.0476954
-0.036562
-0.0869266
-0.0766023
-0.0212312
0.0390366
0.0685073
0.0558419
0.0152879
-0.0267119
-0.0484628
-0.0431119
-0.0187
0.00959526
0.0282277
0.0314416
0.0213241
0.00532053
-0.00913127
-0.0167831
-0.0169678
-0.011423
-0.00387926
0.00280866
0.00672686
0.00761115
0.00618564
0.00372631
0.000947623
-0.00070211
-0.00222506
-0.002153
100.046
99.8255
99.9787
100.423
100.025
99.2475
99.9109
101.271
100.31
97.7412
98.9462
104.712
104.572
85.8922
49.9947
14.1914
-4.5198
-4.94598
0.885152
2.59585
0.03124
-1.63753
-0.446787
1.06278
0.682494
-0.598879
-0.782757
0.175908
0.738135
0.191499
-0.546398
-0.448094
0.241815
0.533684
0.0944951
-0.422477
-0.349584
0.156539
0.422093
0.147842
-0.280614
-0.339607
0.00296735
0.313757
0.244271
-0.0912612
-0.299879
-0.169346
0.129547
0.269956
0.124021
-0.134041
-0.239456
-0.105764
0.116489
0.212203
0.107537
-0.0832851
-0.184814
-0.120247
0.0380887
0.150463
0.132705
0.0141184
-0.102932
-0.131895
-0.0631559
0.041973
0.106422
0.0928274
0.0212638
-0.05444
-0.0871573
-0.0641746
-0.00789191
0.0444581
0.065074
0.0488054
0.0108758
-0.0258047
-0.0439228
-0.0390227
-0.0181793
0.00596245
0.0227339
0.0269929
0.0204473
0.00803754
-0.00383237
-0.0115971
-0.0134106
-0.0108635
-0.00582761
-0.000705879
0.00275816
0.00471178
0.00432802
0.00354982
0.00203443
0.000556629
100.059
100.014
99.7441
100.016
100.492
99.9831
99.1829
99.9532
101.337
100.27
97.6698
98.9783
104.79
104.553
85.807
49.994
14.279
-4.49408
-5.02806
0.83165
2.66099
0.110245
-1.67277
-0.541863
1.05715
0.776414
-0.548453
-0.852777
0.0888516
0.762187
0.292556
-0.512589
-0.529583
0.157976
0.562403
0.197091
-0.382489
-0.424464
0.0637153
0.429239
0.245435
-0.213205
-0.383623
-0.0989777
0.273762
0.31135
0.00552037
-0.281254
-0.247708
0.0399882
0.263448
0.205239
-0.0494338
-0.235315
-0.183624
0.0333442
0.201333
0.176082
0.000352249
-0.159619
-0.172232
-0.0439952
0.106554
0.159641
0.0868463
-0.042132
-0.126875
-0.113539
-0.0245878
0.0700032
0.107952
0.0736814
-0.000711768
-0.0645182
-0.0825319
-0.0523542
0.00117595
0.0456261
0.059976
0.0429792
0.00900258
-0.0226853
-0.0384955
-0.0350665
-0.0183855
0.00181376
0.0166343
0.0221578
0.0185596
0.0100187
0.00033927
-0.00639093
-0.00961597
-0.0087899
-0.00604144
-0.00256717
0.00066982
0.00181359
0.00319878
0.00167041
99.9738
100.139
99.974
99.6796
100.062
100.549
99.9343
99.1257
100.002
101.399
100.225
97.5997
99.0151
104.87
104.531
85.719
49.9932
14.3698
-4.46528
-5.11188
0.772514
2.72476
0.19592
-1.70225
-0.64202
1.04143
0.870639
-0.485773
-0.915831
-0.00826151
0.77195
0.396038
-0.461007
-0.601989
0.0604687
0.571522
0.300792
-0.320197
-0.4839
-0.0415311
0.409992
0.335328
-0.123796
-0.401095
-0.201728
0.204961
0.353765
0.110302
-0.229428
-0.303267
-0.0623016
0.220917
0.263917
0.0495257
-0.193346
-0.236714
-0.0620707
0.152126
0.215109
0.0898155
-0.0982584
-0.188687
-0.120853
0.0335977
0.146805
0.140063
0.0336635
-0.0843116
-0.131366
-0.085983
0.00905418
0.0863388
0.101134
0.0544753
-0.0166156
-0.0681181
-0.0754052
-0.0426064
0.00608108
0.0435174
0.0540971
0.0384435
0.00922857
-0.0180322
-0.0323368
-0.0311679
-0.0186349
-0.00252172
0.010629
0.0168047
0.0161872
0.0106191
0.00377451
-0.00246382
-0.00568957
-0.00695111
-0.00544871
-0.00353809
-0.00125018
0.00116215
99.9473
100.015
100.199
99.9258
99.629
100.115
100.597
99.8781
99.0752
100.059
101.457
100.173
97.5303
99.0569
104.952
104.507
85.6279
49.9924
14.4638
-4.43326
-5.19745
0.707572
2.78683
0.288192
-1.72537
-0.746632
1.01512
0.96384
-0.410995
-0.970153
-0.114003
0.766056
0.499118
-0.391915
-0.661931
-0.0478861
0.559012
0.400608
-0.237066
-0.523115
-0.153578
0.363428
0.410199
-0.0176526
-0.388261
-0.295902
0.111675
0.364971
0.212032
-0.147792
-0.327102
-0.164659
0.145458
0.289427
0.148295
-0.117591
-0.253768
-0.153004
0.0713164
0.214487
0.16632
-0.012035
-0.163359
-0.173211
-0.0514267
0.0952751
0.15772
0.103077
-0.0152787
-0.109426
-0.12169
-0.0564614
0.0343764
0.0926358
0.089913
0.0380021
-0.0263075
-0.0668869
-0.0674648
-0.0354469
0.00734959
0.0389951
0.0477187
0.0349392
0.0107938
-0.0121855
-0.0256096
-0.0266887
-0.0185826
-0.00632879
0.00454376
0.0111681
0.0126753
0.0102426
0.00590888
0.0014803
-0.0020514
-0.00346509
-0.0045743
-0.00321387
100.01
99.8895
100.065
100.244
99.8704
99.5908
100.175
100.635
99.8147
99.0311
100.122
101.512
100.114
97.4618
99.104
105.035
104.48
85.5334
49.9915
14.5614
-4.39787
-5.28471
0.636671
2.8468
0.386936
-1.74153
-0.854992
0.977756
1.05463
-0.324475
-1.01404
-0.226677
0.743459
0.598822
-0.306161
-0.706287
-0.163648
0.5237
0.491425
-0.135806
-0.53823
-0.265971
0.290501
0.463359
0.098199
-0.343778
-0.372248
0.00104207
0.341341
0.299184
-0.0436682
-0.313781
-0.25346
0.0452438
0.27551
0.231286
-0.0182453
-0.229277
-0.22236
-0.0275079
0.171781
0.212675
0.0811962
-0.0997785
-0.18682
-0.127268
0.0169828
0.133189
0.145484
0.0601857
-0.0532602
-0.119037
-0.104066
-0.03001
0.0506703
0.0915913
0.0774244
0.0255417
-0.0305578
-0.0623958
-0.0596088
-0.030683
0.00593034
0.0327202
0.0409233
0.0315917
0.0128497
-0.0061316
-0.0181711
-0.0214319
-0.0168823
-0.00885329
-0.000422683
0.00538983
0.00784723
0.00780805
0.00530972
0.00333546
0.000688772
-0.000470222
100.047
99.9598
99.8499
100.121
100.273
99.8085
99.5646
100.242
100.664
99.7445
98.9937
100.193
101.563
100.049
97.3939
99.1565
105.12
104.449
85.4354
49.9906
14.6626
-4.35896
-5.37356
0.559672
2.90427
0.491983
-1.75011
-0.966324
0.929006
1.14157
-0.226765
-1.04591
-0.344352
0.703467
0.692105
-0.205179
-0.732313
-0.282871
0.465356
0.568248
-0.0202769
-0.526532
-0.37181
0.194062
0.489301
0.215465
-0.268979
-0.422545
-0.117564
0.282724
0.361103
0.0723771
-0.262302
-0.316009
-0.0673981
0.221546
0.284436
0.0897852
-0.164882
-0.256067
-0.126317
0.0932482
0.217335
0.160955
-0.0109349
-0.156522
-0.174067
-0.0681687
0.0717792
0.147603
0.119289
0.0201573
-0.0781322
-0.11713
-0.0839357
-0.00931384
0.0589378
0.086013
0.0657538
0.0173035
-0.030605
-0.0559493
-0.0523135
-0.0276609
0.0028571
0.0256692
0.0337732
0.0280436
0.0140867
-0.000732726
-0.0115167
-0.015465
-0.0141245
-0.00870423
-0.00319027
0.00179266
0.00430566
0.004508
0.00431971
0.00127434
100.004
100.083
99.9038
99.8273
100.182
100.288
99.7416
99.5505
100.315
100.683
99.6679
98.9633
100.27
101.61
99.9767
97.327
99.2147
105.207
104.415
85.3336
49.9896
14.7675
-4.31638
-5.46387
0.476447
2.95878
0.603119
-1.75053
-1.07978
0.868612
1.22321
-0.118619
-1.06427
-0.464881
0.645769
0.775917
-0.0909626
-0.737738
-0.40123
0.384739
0.626431
0.104655
-0.486676
-0.46414
0.0787593
0.484155
0.32517
-0.167885
-0.440408
-0.23334
0.192652
0.389242
0.187634
-0.176455
-0.342312
-0.177554
0.132944
0.297571
0.189204
-0.0694254
-0.245907
-0.206059
-0.00709106
0.177209
0.208808
0.0835456
-0.0878874
-0.178731
-0.137666
-0.0105419
0.10771
0.143732
0.0879734
-0.0118829
-0.0909039
-0.108254
-0.0651908
0.00474401
0.0608956
0.078174
0.0560916
0.0129153
-0.0275505
-0.0485457
-0.0457281
-0.0259807
-0.00101561
0.0184074
0.0268368
0.0242802
0.0147332
0.00331101
-0.00578038
-0.0107083
-0.0108741
-0.0087087
-0.00407714
-0.00108617
0.00246664
0.0034876
99.9608
100.06
100.1
99.8445
99.8213
100.247
100.289
99.6711
99.5489
100.392
100.692
99.5855
98.9405
100.354
101.652
99.8978
97.2613
99.2788
105.295
104.378
85.2281
49.9886
14.8763
-4.26996
-5.55547
0.386886
3.00987
0.720077
-1.74221
-1.19443
0.796432
1.29806
-0.000998283
-1.06782
-0.585918
0.570471
0.847277
0.033942
-0.72087
-0.514135
0.283631
0.661905
0.233288
-0.418848
-0.536368
-0.0491417
0.44607
0.418304
-0.0470589
-0.42198
-0.334992
0.0782203
0.378248
0.288598
-0.0646626
-0.326581
-0.269656
0.0207097
0.26624
0.263054
0.0421732
-0.191363
-0.250297
-0.109909
0.09873
0.212579
0.161703
0.00372493
-0.13851
-0.172293
-0.0912856
0.0363817
0.125268
0.128516
0.058144
-0.0340338
-0.0941313
-0.0962329
-0.0500207
0.0124625
0.0581594
0.069484
0.0486681
0.0118103
-0.0222154
-0.0403484
-0.0396407
-0.0249571
-0.00546358
0.0110218
0.0196584
0.020077
0.01469
0.00662206
-0.000399313
-0.0055297
-0.00736956
-0.006925
-0.00584852
-0.00253635
99.9835
99.9468
100.117
100.1
99.7845
99.8315
100.312
100.275
99.5987
99.5601
100.472
100.69
99.4981
98.926
100.444
101.689
99.8121
97.1972
99.3488
105.386
104.337
85.1187
49.9875
14.9889
-4.21957
-5.64818
0.290903
3.05703
0.84253
-1.7246
-1.30928
0.712454
1.36464
0.124913
-1.05545
-0.704957
0.478132
0.903365
0.166471
-0.680713
-0.616905
0.164853
0.671429
0.359319
-0.324886
-0.58271
-0.182056
0.375525
0.486543
0.0847517
-0.366507
-0.411829
-0.0503746
0.326843
0.362544
0.0607214
-0.268376
-0.329685
-0.0997743
0.192914
0.297643
0.151115
-0.10033
-0.248683
-0.194189
-0.00281593
0.169614
0.20433
0.0962962
-0.0624541
-0.161592
-0.147379
-0.0458203
0.0688611
0.128252
0.108317
0.0336312
-0.0467043
-0.0906984
-0.0836489
-0.0390249
0.0148711
0.0521284
0.0603872
0.0429194
0.0127451
-0.0152935
-0.0314657
-0.0329387
-0.023525
-0.0090769
0.0037933
0.0121532
0.014409
0.01227
0.0079596
0.00261289
-0.00022074
-0.00336589
-0.00278137
100.029
99.9285
99.9525
100.171
100.081
99.727
99.8576
100.375
100.247
99.5265
99.5845
100.554
100.677
99.4067
98.9203
100.541
101.721
99.7195
97.135
99.425
105.478
104.293
85.0054
49.9864
15.1053
-4.16506
-5.74177
0.18844
3.09977
0.9701
-1.6972
-1.4233
0.616809
1.4215
0.257727
-1.02629
-0.819388
0.369784
0.941634
0.303126
-0.617054
-0.704973
0.032194
0.652828
0.476176
-0.208287
-0.598663
-0.311551
0.275472
0.523036
0.217264
-0.276664
-0.454956
-0.180746
0.238306
0.399241
0.184788
-0.173111
-0.347467
-0.210911
0.0871231
0.285315
0.238022
0.0117946
-0.199669
-0.241805
-0.106178
0.0882112
0.200188
0.166614
0.0302277
-0.107686
-0.162337
-0.11428
-0.00795914
0.0872757
0.121601
0.0878692
0.0158545
-0.0515924
-0.0832703
-0.0719139
-0.031798
0.0135542
0.0440907
0.0511944
0.0378523
0.0142998
-0.00833198
-0.022449
-0.0258125
-0.0203925
-0.0108762
-0.000850207
0.00562424
0.00924107
0.00842011
0.00637562
0.00343911
-0.000282718
100.026
100.02
99.8784
99.9762
100.221
100.046
99.6747
99.8988
100.435
100.204
99.4565
99.6222
100.637
100.652
99.3123
98.9243
100.642
101.746
99.6203
97.0752
99.5076
105.571
104.244
84.8882
49.9853
15.2257
-4.1063
-5.83605
0.0794458
3.13761
1.10237
-1.65957
-1.53538
0.50976
1.46727
0.395885
-0.979746
-0.926569
0.246902
0.959896
0.440085
-0.530494
-0.774087
-0.109736
0.605151
0.577386
-0.0740595
-0.581366
-0.428928
0.151221
0.523067
0.339533
-0.158463
-0.458312
-0.299616
0.120323
0.392409
0.291995
-0.0515682
-0.318464
-0.295674
-0.0358431
0.226163
0.286687
0.124919
-0.11125
-0.241796
-0.188995
-0.0140353
0.149298
0.196711
0.115462
-0.0250067
-0.131753
-0.148559
-0.0810697
0.0194779
0.0942513
0.109938
0.0700971
0.00474999
-0.0508102
-0.0738914
-0.0618202
-0.0275343
0.00985902
0.035317
0.0422524
0.0331982
0.0155971
-0.00229309
-0.0144087
-0.0191108
-0.0167838
-0.0108867
-0.0040272
0.00202025
0.0044923
0.00687712
0.00460307
99.9844
100.072
99.9938
99.8373
100.016
100.261
99.9973
99.6309
99.9541
100.487
100.148
99.3909
99.6733
100.718
100.615
99.216
98.9384
100.748
101.765
99.5145
97.0182
99.5965
105.666
104.191
84.767
49.984
15.35
-4.04313
-5.93079
-0.0361186
3.17004
1.23889
-1.61129
-1.64443
0.391692
1.50063
0.537664
-0.915491
-1.02386
0.111384
0.956367
0.573295
-0.422446
-0.820462
-0.255665
0.52874
0.656891
0.0715053
-0.529824
-0.525783
0.0101402
0.484491
0.440844
-0.0208292
-0.419371
-0.394172
-0.0157282
0.340611
0.368138
0.0813984
-0.244596
-0.340242
-0.157271
0.128211
0.287097
0.21803
0.000500492
-0.192794
-0.2328
-0.114333
0.0629384
0.178489
0.170895
0.0640184
-0.0643142
-0.138597
-0.127818
-0.0528149
0.0363485
0.0930456
0.0966556
0.0564094
-0.000535963
-0.0460055
-0.0638528
-0.0533492
-0.0256436
0.00482782
0.0261199
0.0337386
0.0286011
0.0164518
0.00297076
-0.00751173
-0.0122898
-0.0132664
-0.00948888
-0.00610411
-0.00159429
0.00142035
99.9702
100.012
100.107
99.9525
99.8087
100.068
100.288
99.9357
99.5982
100.022
100.531
100.079
99.3318
99.7376
100.796
100.565
99.1191
98.9633
100.859
101.776
99.4025
96.9645
99.692
105.762
104.134
84.6418
49.9828
15.4782
-3.9754
-6.02572
-0.158276
3.19654
1.37914
-1.55201
-1.74926
0.263133
1.52033
0.681175
-0.833486
-1.10864
-0.0344501
0.929731
0.698549
-0.295148
-0.840925
-0.3998
0.425298
0.709342
0.221063
-0.445072
-0.59453
-0.138708
0.408044
0.51157
0.124991
-0.339563
-0.453356
-0.155774
0.247669
0.402125
0.208565
-0.134297
-0.336147
-0.257737
0.00644212
0.237387
0.272941
0.114207
-0.10358
-0.226984
-0.189572
-0.0387445
0.115796
0.181497
0.134787
0.0205895
-0.0874553
-0.133631
-0.105809
-0.0318055
0.0440616
0.086475
0.0837045
0.0467975
-0.00116792
-0.0384986
-0.0533615
-0.0460121
-0.0247865
-0.00097564
0.017103
0.024812
0.0236498
0.0157655
0.0067126
-0.00154177
-0.00664518
-0.00759954
-0.00817609
-0.00378134
100.001
99.9399
100.053
100.126
99.9005
99.7957
100.13
100.301
99.8646
99.5793
100.1
100.562
99.9976
99.2815
99.8144
100.869
100.502
99.0228
98.9995
100.973
101.778
99.2843
96.9146
99.7941
105.859
104.073
84.5126
49.9814
15.6103
-3.90296
-6.1206
-0.287017
3.21659
1.52256
-1.48142
-1.84868
0.124777
1.52524
0.82437
-0.734033
-1.17839
-0.187859
0.879235
0.8116
-0.151679
-0.833108
-0.536024
0.297951
0.730455
0.36653
-0.330314
-0.628993
-0.285068
0.297554
0.544087
0.266241
-0.224496
-0.469179
-0.284385
0.122668
0.387662
0.312466
-0.00184927
-0.282004
-0.32018
-0.119191
0.144817
0.277957
0.207046
0.00798884
-0.171703
-0.221629
-0.130982
0.0242614
0.144029
0.167185
0.0977982
-0.0111833
-0.097043
-0.121906
-0.0859912
-0.0181654
0.0446616
0.0767432
0.0717105
0.0404113
0.00118375
-0.0293511
-0.0426132
-0.0387696
-0.0238105
-0.0059394
0.00859611
0.0165299
0.0172944
0.0141535
0.00734865
0.0027638
-0.00256334
-0.0042041
100.028
99.9605
99.9277
100.102
100.127
99.8427
99.8005
100.198
100.297
99.7872
99.5763
100.186
100.58
99.9067
99.2421
99.9029
100.936
100.427
98.9287
99.0472
101.089
101.772
99.1603
96.869
99.9028
105.956
104.007
84.3794
49.98
15.7463
-3.82567
-6.21515
-0.422302
3.22969
1.66853
-1.39932
-1.94147
-0.0225246
1.51436
0.965086
-0.617795
-1.23077
-0.34574
0.804772
0.908333
0.00410073
-0.795636
-0.658187
0.151202
0.717366
0.499556
-0.190891
-0.625008
-0.418235
0.159877
0.533686
0.389831
-0.083718
-0.437931
-0.386579
-0.0207856
0.324561
0.377991
0.134378
-0.184362
-0.33314
-0.2271
0.0251012
0.230865
0.25968
0.118413
-0.0786988
-0.202438
-0.19074
-0.0722579
0.0688752
0.152204
0.144223
0.0657935
-0.0311115
-0.0967486
-0.107367
-0.0698378
-0.0108446
0.0404674
0.0653226
0.060832
0.035844
0.00495458
-0.0199
-0.0319484
-0.0311513
-0.0218944
-0.00892993
0.00165354
0.00924194
0.0112676
0.0101917
0.00794361
0.00269247
100.013
100.036
99.9156
99.9353
100.153
100.109
99.7843
99.8241
100.266
100.274
99.7073
99.5907
100.277
100.582
99.8077
99.2154
100.002
100.993
100.339
98.8383
99.107
101.207
101.757
99.031
96.8281
100.018
106.054
103.937
84.2422
49.9786
15.8862
-3.74341
-6.30909
-0.564082
3.23537
1.8164
-1.30557
-2.02645
-0.177786
1.4869
1.1011
-0.485779
-1.26372
-0.504721
0.706897
0.984926
0.167687
-0.728228
-0.760421
-0.00926718
0.668877
0.612062
-0.0339998
-0.580856
-0.527929
0.00444073
0.479186
0.48368
0.0701407
-0.360853
-0.44976
-0.166174
0.219087
0.394833
0.254728
-0.0569487
-0.293134
-0.298186
-0.100458
0.139816
0.260815
0.204008
0.0312907
-0.136454
-0.203243
-0.148528
-0.0228967
0.0950586
0.146757
0.119372
0.0414598
-0.0408721
-0.0901881
-0.0925585
-0.0576846
-0.00816247
0.0333208
0.053577
0.0506966
0.032344
0.00841846
-0.0110338
-0.0222322
-0.0235381
-0.0183583
-0.0104566
-0.00160289
0.00259847
0.00732863
0.00551838
99.9813
100.055
100.023
99.873