/*--------------------------------*- C++ -*----------------------------------*\
  =========                 |
  \\      /  F ield         | OpenFOAM: The Open Source CFD Toolbox
   \\    /   O peration     | Website:  https://openfoam.org
    \\  /    A nd           | Version:  8
     \\/     M anipulation  |
\*---------------------------------------------------------------------------*/
FoamFile
{
    version     2.0;
    format      ascii;
    class       volScalarField;
    location    "0.235";
    object      T;
}
// * * * * * * * * * * * * * * * * * * * * * * * * * * * * * * * * * * * * * //

dimensions      [0 0 0 1 0 0 0];

internalField   nonuniform List<scalar> 
100
(
49.9658
6.0603
-4.78386
-4.07893
-1.90073
-0.655931
-0.180594
-0.0403929
-0.00712926
-0.000812368
94.1685
49.0172
14.4592
0.0432206
-2.67612
-1.83094
-0.82351
-0.293393
-0.0893848
-0.0198605
105.043
84.4567
49.4879
22.2581
7.97392
2.31711
0.543671
0.0980011
0.0104576
-0.000451761
103.844
103.289
79.0915
46.8939
22.3911
8.91843
3.04519
0.909782
0.243723
0.0496066
101.008
110.793
96.3381
63.6447
33.1817
14.2141
5.16392
1.62874
0.458536
0.0971006
99.268
113.163
104.158
72.101
38.9804
17.1882
6.39525
2.05845
0.590092
0.126731
98.5224
113.766
107.087
75.5417
41.4528
18.4992
6.95239
2.25715
0.652119
0.140912
98.264
113.888
108.027
76.7199
42.3287
18.9744
7.15788
2.33145
0.675575
0.146318
98.1891
113.904
108.289
77.0735
42.6038
19.1293
7.2271
2.35726
0.683977
0.148306
98.1676
113.906
108.36
77.1672
42.6739
19.1669
7.24295
2.36279
0.68565
0.148666
)
;

boundaryField
{
    left
    {
        type            fixedValue;
        value           uniform 100;
    }
    right
    {
        type            zeroGradient;
    }
    up
    {
        type            zeroGradient;
    }
    down
    {
        type            fixedValue;
        value           uniform 0;
    }
    frontAndBack
    {
        type            empty;
    }
}


// ************************************************************************* //
