/*--------------------------------*- C++ -*----------------------------------*\
  =========                 |
  \\      /  F ield         | OpenFOAM: The Open Source CFD Toolbox
   \\    /   O peration     | Website:  https://openfoam.org
    \\  /    A nd           | Version:  8
     \\/     M anipulation  |
\*---------------------------------------------------------------------------*/
FoamFile
{
    version     2.0;
    format      ascii;
    class       volVectorField;
    location    "84";
    object      U;
}
// * * * * * * * * * * * * * * * * * * * * * * * * * * * * * * * * * * * * * //

dimensions      [0 1 -1 0 0 0 0];

internalField   nonuniform List<vector> 
400
(
(1 1.06192e-16 0)
(1 7.70714e-17 0)
(1 3.95951e-17 0)
(1 4.00985e-17 0)
(1 9.56109e-17 0)
(1 5.2012e-17 0)
(1 6.49746e-18 0)
(1 -7.05893e-18 0)
(1 -6.36144e-18 0)
(1 4.8564e-17 0)
(1 1.1418e-18 0)
(1 -3.83457e-17 0)
(1 -1.13055e-16 0)
(1 -1.39017e-16 0)
(1 -9.31868e-17 0)
(1 -5.44006e-17 0)
(1 -6.8145e-17 0)
(1 -1.01037e-16 0)
(1 -1.97762e-17 0)
(1 -7.61631e-17 0)
(1 1.10409e-16 0)
(1 1.33018e-16 0)
(1 4.24741e-17 0)
(1 1.09773e-17 0)
(1 5.00308e-17 0)
(1 1.99185e-17 0)
(1 -1.8297e-17 0)
(1 -1.64869e-17 0)
(1 -1.77178e-17 0)
(1 1.82786e-17 0)
(1 4.25029e-17 0)
(1 -1.02018e-16 0)
(1 -1.42e-16 0)
(1 -1.25212e-16 0)
(1 -3.1403e-17 0)
(1 -1.82511e-17 0)
(1 -9.04967e-17 0)
(1 -1.23036e-16 0)
(1 -5.18303e-17 0)
(1 -6.40436e-17 0)
(1 -1.66151e-17 0)
(1 1.76861e-16 0)
(1 1.26472e-16 0)
(1 3.1214e-17 0)
(1 -9.22196e-17 0)
(1 -6.07354e-17 0)
(1 -5.08608e-17 0)
(1 -1.39937e-17 0)
(1 -2.09852e-17 0)
(1 -1.1762e-17 0)
(1 1.01302e-17 0)
(1 -6.2538e-17 0)
(1 -1.71752e-17 0)
(1 -6.72671e-17 0)
(1 -1.53885e-17 0)
(1 -3.00925e-17 0)
(1 -4.01205e-17 0)
(1 -1.3279e-16 0)
(1 -1.2841e-16 0)
(1 -1.02572e-16 0)
(1 -1.25523e-16 0)
(1 1.06896e-16 0)
(1 1.56848e-16 0)
(1 4.81564e-17 0)
(1 -1.32491e-16 0)
(1 -1.06793e-16 0)
(1 -9.61123e-17 0)
(1 1.27628e-17 0)
(1 -3.40224e-17 0)
(1 -2.08518e-20 0)
(1 -7.08741e-17 0)
(1 8.54519e-17 0)
(1 9.86583e-17 0)
(1 -1.19308e-17 0)
(1 2.50535e-17 0)
(1 -8.70219e-18 0)
(1 -3.84889e-17 0)
(1 -1.49484e-16 0)
(1 -1.7518e-16 0)
(1 -1.55333e-16 0)
(1 -1.25396e-16 0)
(1 -5.5636e-17 0)
(1 1.20335e-16 0)
(1 -8.61157e-18 0)
(1 -9.10385e-17 0)
(1 -4.94329e-17 0)
(1 -5.71973e-17 0)
(1 -4.04135e-17 0)
(1 6.42105e-18 0)
(1 2.30303e-17 0)
(1 -6.5536e-18 0)
(1 3.9649e-17 0)
(1 5.36737e-17 0)
(1 4.2018e-17 0)
(1 7.39712e-17 0)
(1 1.45166e-17 0)
(1 -1.17554e-16 0)
(1 -1.66714e-16 0)
(1 -1.94188e-16 0)
(1 -1.54521e-16 0)
(1 -6.11807e-17 0)
(1 -1.24046e-16 0)
(1 7.26207e-17 0)
(1 2.13089e-17 0)
(1 -2.00197e-17 0)
(1 2.8879e-18 0)
(1 1.25382e-17 0)
(1 -8.79986e-17 0)
(1 -3.55997e-17 0)
(1 -5.07833e-17 0)
(1 -5.16852e-17 0)
(1 -5.7606e-17 0)
(1 4.44116e-17 0)
(1 5.86936e-17 0)
(1 3.77206e-19 0)
(1 1.16624e-17 0)
(1 -9.05443e-17 0)
(1 -1.11176e-16 0)
(1 -1.75127e-16 0)
(1 -1.80075e-16 0)
(1 2.67426e-17 0)
(1 -5.81089e-17 0)
(1 2.0714e-18 0)
(1 2.95301e-17 0)
(1 3.35181e-17 0)
(1 1.7105e-17 0)
(1 -9.24402e-19 0)
(1 -4.41055e-17 0)
(1 -1.10843e-16 0)
(1 -1.68599e-16 0)
(1 -1.74619e-16 0)
(1 -4.54883e-17 0)
(1 -1.88114e-17 0)
(1 -3.7316e-17 0)
(1 -4.27493e-17 0)
(1 -3.35573e-17 0)
(1 -9.96092e-17 0)
(1 -3.3622e-17 0)
(1 -1.07895e-16 0)
(1 -1.77447e-16 0)
(1 5.10273e-17 0)
(1 -2.36369e-17 0)
(1 -5.27835e-17 0)
(1 4.76928e-17 0)
(1 8.16281e-17 0)
(1 6.18139e-17 0)
(1 -1.44233e-17 0)
(1 -4.80971e-17 0)
(1 -1.45908e-16 0)
(1 -2.75934e-16 0)
(1 -1.50765e-16 0)
(1 -5.63574e-17 0)
(1 -1.03797e-16 0)
(1 -1.06213e-16 0)
(1 -1.35354e-16 0)
(1 -1.0846e-16 0)
(1 -1.15492e-16 0)
(1 -5.72681e-17 0)
(1 -7.74714e-17 0)
(1 -1.6251e-16 0)
(1 1.11112e-17 0)
(1 -1.64553e-17 0)
(1 -3.75433e-17 0)
(1 7.22519e-17 0)
(1 9.30613e-17 0)
(1 6.62199e-17 0)
(1 1.9173e-17 0)
(1 -8.49861e-17 0)
(1 -2.59198e-16 0)
(1 -2.74306e-16 0)
(1 -7.68613e-17 0)
(1 -8.72495e-17 0)
(1 -1.09782e-16 0)
(1 -1.56753e-16 0)
(1 -2.45372e-16 0)
(1 -1.73283e-16 0)
(1 -1.07678e-16 0)
(1 -9.50627e-17 0)
(1 -1.05991e-16 0)
(1 -1.48999e-16 0)
(1 -3.09977e-17 0)
(1 -5.45732e-17 0)
(1 -1.37869e-18 0)
(1 2.24796e-17 0)
(1 1.05899e-16 0)
(1 1.05601e-16 0)
(1 -7.22147e-18 0)
(1 -1.08361e-16 0)
(1 -2.39809e-16 0)
(1 -1.26332e-16 0)
(1 -8.68845e-17 0)
(1 -1.46559e-16 0)
(1 -2.01404e-16 0)
(1 -2.23885e-16 0)
(1 -2.04873e-16 0)
(1 -2.15879e-16 0)
(1 -1.33971e-16 0)
(1 -1.60227e-16 0)
(1 -1.39627e-16 0)
(1 -5.47841e-17 0)
(1 -6.077e-17 0)
(1 -9.71893e-17 0)
(1 -7.35346e-17 0)
(1 1.25395e-17 0)
(1 1.48424e-16 0)
(1 1.37736e-16 0)
(1 -2.27101e-17 0)
(1 -7.92094e-17 0)
(1 -1.08383e-16 0)
(1 -1.15345e-16 0)
(1 -1.21994e-16 0)
(1 -1.72868e-16 0)
(1 -2.41154e-16 0)
(1 -2.37922e-16 0)
(1 -2.12153e-16 0)
(1 -1.89447e-16 0)
(1 -1.82158e-16 0)
(1 -2.557e-16 0)
(1 -1.62737e-16 0)
(1 -6.34852e-17 0)
(1 -4.17258e-17 0)
(1 -6.97546e-17 0)
(1 -8.83324e-17 0)
(1 8.52007e-18 0)
(1 2.32577e-18 0)
(1 2.87188e-17 0)
(1 -3.07294e-17 0)
(1 -2.75822e-17 0)
(1 3.94459e-18 0)
(1 -1.06193e-16 0)
(1 -1.55782e-16 0)
(1 -1.45371e-16 0)
(1 -1.88983e-16 0)
(1 -1.87469e-16 0)
(1 -2.1785e-16 0)
(1 -1.95172e-16 0)
(1 -2.61653e-16 0)
(1 -2.84545e-16 0)
(1 -1.89947e-16 0)
(1 -1.88299e-16 0)
(1 -5.02649e-17 0)
(1 -3.17617e-17 0)
(1 -4.96007e-17 0)
(1 -3.43917e-17 0)
(1 -1.18146e-16 0)
(1 -1.35995e-16 0)
(1 -1.03743e-16 0)
(1 -4.16727e-17 0)
(1 3.99082e-17 0)
(1 -5.56612e-17 0)
(1 -1.76105e-16 0)
(1 -1.6446e-16 0)
(1 -1.48785e-16 0)
(1 -1.02347e-16 0)
(1 -1.17498e-16 0)
(1 -1.93611e-16 0)
(1 -3.2077e-16 0)
(1 -2.89637e-16 0)
(1 -2.68068e-16 0)
(1 -2.6332e-16 0)
(1 -3.91048e-17 0)
(1 -7.96494e-18 0)
(1 -7.02368e-17 0)
(1 -8.43675e-17 0)
(1 -1.48506e-16 0)
(1 -2.21523e-16 0)
(1 -9.30408e-17 0)
(1 -4.57353e-17 0)
(1 -4.07328e-17 0)
(1 -1.01948e-16 0)
(1 -1.42758e-16 0)
(1 -1.5895e-16 0)
(1 -9.00417e-17 0)
(1 -7.3605e-17 0)
(1 -1.34401e-16 0)
(1 -2.23776e-16 0)
(1 -2.71405e-16 0)
(1 -2.29434e-16 0)
(1 -2.76799e-16 0)
(1 -2.97634e-16 0)
(1 3.53012e-17 0)
(1 -6.41968e-17 0)
(1 -5.79952e-17 0)
(1 -8.98347e-17 0)
(1 -1.77244e-16 0)
(1 -2.24001e-16 0)
(1 -3.45218e-17 0)
(1 -2.77499e-17 0)
(1 -1.01413e-16 0)
(1 -9.04886e-17 0)
(1 -1.50136e-16 0)
(1 -1.39648e-16 0)
(1 -5.44601e-17 0)
(1 -7.88856e-17 0)
(1 -1.49462e-16 0)
(1 -1.92181e-16 0)
(1 -2.28734e-16 0)
(1 -1.88229e-16 0)
(1 -2.22867e-16 0)
(1 -2.79545e-16 0)
(1 3.35106e-17 0)
(1 -1.40481e-16 0)
(1 -1.3625e-16 0)
(1 -7.59876e-17 0)
(1 -1.67204e-16 0)
(1 -1.75325e-16 0)
(1 -6.82199e-17 0)
(1 -1.36665e-17 0)
(1 -5.32776e-17 0)
(1 -7.41665e-17 0)
(1 -1.38066e-16 0)
(1 -1.02618e-16 0)
(1 -3.1765e-17 0)
(1 -5.92103e-17 0)
(1 -7.69732e-17 0)
(1 -1.16218e-16 0)
(1 -1.98987e-16 0)
(1 -2.18395e-16 0)
(1 -2.31306e-16 0)
(1 -2.28597e-16 0)
(1 -1.54288e-17 0)
(1 -1.4685e-16 0)
(1 -2.52881e-16 0)
(1 -1.33549e-16 0)
(1 -1.04006e-16 0)
(1 -1.13539e-16 0)
(1 -1.10996e-16 0)
(1 -6.20721e-17 0)
(1 -1.84209e-18 0)
(1 -3.46944e-17 0)
(1 -7.71468e-17 0)
(1 -4.27037e-17 0)
(1 -3.15048e-18 0)
(1 1.40779e-17 0)
(1 -3.35579e-17 0)
(1 -1.10945e-16 0)
(1 -1.45619e-16 0)
(1 -2.38291e-16 0)
(1 -2.40935e-16 0)
(1 -1.91481e-16 0)
(1 -4.16266e-17 0)
(1 -1.50788e-16 0)
(1 -2.26e-16 0)
(1 -2.07122e-16 0)
(1 -6.50627e-17 0)
(1 -7.72296e-17 0)
(1 -1.07128e-16 0)
(1 -1.3788e-16 0)
(1 -6.48907e-17 0)
(1 5.34266e-18 0)
(1 1.72639e-18 0)
(1 -1.85022e-18 0)
(1 5.57788e-17 0)
(1 9.32569e-17 0)
(1 -3.01917e-17 0)
(1 -1.05899e-16 0)
(1 -1.65415e-16 0)
(1 -2.23726e-16 0)
(1 -1.85447e-16 0)
(1 -1.86054e-16 0)
(1 -6.01496e-17 0)
(1 -1.23901e-16 0)
(1 -1.29574e-16 0)
(1 -1.80835e-16 0)
(1 -1.14366e-16 0)
(1 -7.3125e-17 0)
(1 -1.11124e-16 0)
(1 -1.35063e-16 0)
(1 -8.98397e-17 0)
(1 -6.81832e-17 0)
(1 1.07972e-17 0)
(1 3.33622e-17 0)
(1 7.01373e-17 0)
(1 8.02133e-17 0)
(1 -2.85893e-17 0)
(1 -1.37507e-16 0)
(1 -1.62444e-16 0)
(1 -1.44129e-16 0)
(1 -1.53718e-16 0)
(1 -1.55577e-16 0)
(1 -4.58449e-17 0)
(1 -7.48381e-17 0)
(1 -6.34386e-17 0)
(1 -1.39322e-16 0)
(1 -1.29793e-16 0)
(1 -7.73356e-17 0)
(1 -1.07456e-16 0)
(1 -1.21405e-16 0)
(1 -6.59424e-17 0)
(1 -1.17258e-16 0)
(1 -5.2409e-17 0)
(1 9.74075e-18 0)
(1 3.62799e-17 0)
(1 3.55273e-17 0)
(1 -8.71924e-18 0)
(1 -1.34456e-16 0)
(1 -1.25747e-16 0)
(1 -9.982e-17 0)
(1 -1.6141e-16 0)
(1 -1.3331e-16 0)
)
;

boundaryField
{
    inlet
    {
        type            fixedValue;
        value           uniform (1 0 0);
    }
    outlet
    {
        type            zeroGradient;
    }
    up
    {
        type            zeroGradient;
    }
    down
    {
        type            zeroGradient;
    }
    frontAndBack
    {
        type            empty;
    }
}


// ************************************************************************* //
