/*--------------------------------*- C++ -*----------------------------------*\
  =========                 |
  \\      /  F ield         | OpenFOAM: The Open Source CFD Toolbox
   \\    /   O peration     | Website:  https://openfoam.org
    \\  /    A nd           | Version:  8
     \\/     M anipulation  |
\*---------------------------------------------------------------------------*/
FoamFile
{
    version     2.0;
    format      ascii;
    class       surfaceScalarField;
    location    "90";
    object      phi;
}
// * * * * * * * * * * * * * * * * * * * * * * * * * * * * * * * * * * * * * //

dimensions      [0 3 -1 0 0 0 0];

internalField   nonuniform List<scalar> 
34404
(
0.00534123
-8.33711e-06
4.47074e-07
0.00536227
-2.10844e-05
4.3251e-08
0.00539601
-3.31092e-05
-6.33316e-07
0.00543884
-4.28543e-05
2.10471e-08
0.00549658
-5.7599e-05
-1.37913e-07
0.00555535
-5.74912e-05
-1.27484e-06
0.0056296
-7.55979e-05
1.34022e-06
0.00569697
-6.47527e-05
-2.61181e-06
0.00577538
-8.15316e-05
3.11626e-06
0.00584166
-6.25257e-05
-3.75089e-06
0.00591289
-7.60826e-05
4.85298e-06
0.00596718
-4.91689e-05
-5.12226e-06
0.00602302
-6.25384e-05
6.70349e-06
0.00605559
-2.5827e-05
-6.7468e-06
0.00609079
-4.34092e-05
8.20819e-06
0.00609517
3.29091e-06
-7.67444e-06
0.00610659
-1.94769e-05
8.06303e-06
0.00608379
2.89176e-05
-6.12109e-06
0.00606893
1.04867e-05
4.37977e-06
0.00602584
4.32812e-05
-1.99315e-07
0.00598064
4.94232e-05
-4.22316e-06
0.00593042
3.96802e-05
1.05404e-05
0.00585149
9.51637e-05
-1.62265e-05
0.00580658
2.25442e-05
2.23597e-05
0.00570011
0.000132046
-2.55711e-05
0.00566157
1.12394e-05
2.72956e-05
0.00554848
0.000136848
-2.37544e-05
0.00550389
2.56987e-05
1.88937e-05
0.00540729
0.000105758
-9.1608e-06
0.00534566
5.94969e-05
2.13676e-06
0.005268
7.1196e-05
6.45893e-06
0.00519038
8.513e-05
-7.5119e-06
0.00511627
6.55096e-05
8.60223e-06
0.00502836
9.05642e-05
-2.64974e-06
0.00494012
8.61171e-05
2.12091e-06
0.00484148
9.84971e-05
1.36378e-07
0.0047451
8.6855e-05
9.52713e-06
0.00460669
0.000152656
-1.42433e-05
0.00452864
5.12681e-05
2.67793e-05
0.00435849
0.000182414
-1.22592e-05
0.00424575
0.000106629
6.11212e-06
0.00413318
7.84437e-05
3.41228e-05
0.00401694
9.45401e-05
2.16963e-05
0.00384236
0.000182953
-8.36615e-06
0.00379169
-6.92119e-05
0.000119881
0.0032759
0.000303916
0.000211871
0.00355734
-0.00120519
0.000923751
0.0028721
-0.000337
0.00102224
0.00338501
-0.00230532
0.00179241
-0.00320504
0.00177649
0.00534194
-1.75492e-05
6.06275e-07
0.00536244
-4.1311e-05
-2.67268e-07
0.00539777
-6.79559e-05
-4.91482e-07
0.00544097
-8.59824e-05
-7.09757e-08
0.00550113
-0.000117617
-1.37533e-07
0.00556134
-0.000116614
-1.08551e-06
0.00563769
-0.000153104
1.15375e-06
0.00570691
-0.000131848
-2.12036e-06
0.00578734
-0.000164585
2.61675e-06
0.00585519
-0.000127475
-2.90153e-06
0.00592753
-0.00015221
3.78986e-06
0.00598383
-0.000101841
-3.62843e-06
0.00603857
-0.000121944
4.66638e-06
0.00607512
-5.81512e-05
-4.22323e-06
0.0061054
-7.86176e-05
4.92228e-06
0.00611709
-4.29197e-06
-4.10563e-06
0.00611952
-2.58522e-05
3.9525e-06
0.00610627
4.44665e-05
-2.3038e-06
0.00608132
3.45941e-05
8.46922e-07
0.00604562
7.67833e-05
2.19502e-06
0.00599489
0.000105483
-5.32976e-06
0.00594342
8.12968e-05
9.85516e-06
0.00586917
0.000183431
-1.40251e-05
0.00581129
6.1826e-05
1.85983e-05
0.00571964
0.000245064
-2.13615e-05
0.00566198
4.62196e-05
2.26757e-05
0.0055649
0.000254582
-2.06469e-05
0.00550863
6.54277e-05
1.65355e-05
0.00541509
0.000208696
-9.39412e-06
0.00536037
0.00011114
3.07554e-06
0.00526935
0.00015874
3.47368e-06
0.00521017
0.00014922
-4.90947e-06
0.00512181
0.000148662
5.20774e-06
0.00504124
0.000172598
-1.46588e-06
0.00495897
0.000165885
2.49946e-06
0.00484512
0.000217906
-5.56017e-06
0.00476474
0.000148952
1.82869e-05
0.00461788
0.000326236
-2.67177e-05
0.00452973
9.83091e-05
4.11092e-05
0.00436658
0.000370901
-2.53373e-05
0.00425941
0.000197838
1.59598e-05
0.00409484
0.000182121
6.089e-05
0.00399565
0.0002031
-9.36578e-06
0.00388188
0.000311529
-1.48105e-05
0.00383771
-0.000241408
0.000216372
0.00358706
6.79686e-05
0.00048659
0.00356554
-0.00176918
0.000585514
0.00364248
-0.00113492
0.000720978
0.0033424
-0.00236105
0.000355801
-0.00388738
0.000491007
0.00534324
-2.8322e-05
8.65983e-07
0.00536286
-6.00915e-05
-8.36893e-07
0.00540149
-0.00010645
-1.33116e-07
0.00544561
-0.000129682
-4.22749e-07
0.00551073
-0.000182836
1.03224e-07
0.00557415
-0.000179088
-9.5079e-07
0.00565459
-0.000234544
1.00072e-06
0.0057279
-0.000203723
-1.43831e-06
0.00581197
-0.000250586
1.93063e-06
0.00588322
-0.000196948
-1.77534e-06
0.00595816
-0.000229812
2.66177e-06
0.00601726
-0.00015867
-2.27194e-06
0.00607224
-0.000180132
3.21135e-06
0.00611223
-9.53678e-05
-2.77111e-06
0.00613918
-0.000108826
3.25847e-06
0.00615606
-1.8448e-05
-2.72504e-06
0.00615166
-2.40527e-05
2.60316e-06
0.00614406
5.38534e-05
-1.78408e-06
0.00611229
6.5303e-05
1.06046e-06
0.00607855
0.000109986
5.32388e-07
0.00602579
0.00016037
-2.13006e-06
0.00596836
0.00013375
4.97508e-06
0.00589942
0.000260241
-7.86825e-06
0.00582845
0.000120757
1.20419e-05
0.00574599
0.000343578
-1.60574e-05
0.00567576
9.62235e-05
2.02287e-05
0.00558466
0.000368781
-2.31026e-05
0.00552344
0.000102173
2.44796e-05
0.00543133
0.000323329
-2.25181e-05
0.0053788
0.000144165
1.95012e-05
0.00528368
0.000267133
-1.32703e-05
0.00523801
0.000185448
9.44125e-06
0.00513146
0.000259577
-4.36559e-06
0.00507614
0.000224546
3.37244e-06
0.00497616
0.000262518
3.34742e-06
0.00486262
0.000341322
-9.88159e-06
0.00480398
0.000183612
2.39807e-05
0.00462775
0.000527533
-2.50638e-05
0.00454112
0.000145271
3.96696e-05
0.00438919
0.000555247
-3.24148e-05
0.00425829
0.000259849
6.88877e-05
0.00403477
0.000356715
4.89235e-05
0.00392706
0.000386344
-7.55364e-05
0.00395222
0.000105897
0.000180476
0.00408421
-0.000934624
0.000561225
0.0042067
-0.000576225
0.000521708
0.00431682
-0.00220931
0.000330014
0.00496599
-0.00197754
0.000193449
0.00489885
-0.00193754
-0.000356363
-0.00346904
-0.000126509
0.00534459
-4.06707e-05
1.09907e-06
0.00536429
-7.84206e-05
-1.37416e-06
0.00540688
-0.000149397
3.52854e-07
0.00545299
-0.00017478
-1.00544e-06
0.00552574
-0.000256397
8.068e-07
0.00559323
-0.000245157
-1.41796e-06
0.0056805
-0.000323225
1.40659e-06
0.00575938
-0.000281119
-1.48231e-06
0.00584931
-0.000342313
1.79606e-06
0.00592582
-0.000272247
-1.21627e-06
0.00600453
-0.000310689
2.17097e-06
0.00606834
-0.000220971
-1.50483e-06
0.00612422
-0.000238783
2.76872e-06
0.00616834
-0.000137041
-2.4486e-06
0.0061932
-0.000136934
3.24879e-06
0.0062135
-3.55345e-05
-3.22031e-06
0.00620452
-1.83611e-05
3.29202e-06
0.00619935
6.22475e-05
-3.22414e-06
0.00616249
9.91595e-05
2.9998e-06
0.00612842
0.000146538
-2.47308e-06
0.00607258
0.000214046
2.15784e-06
0.0060094
0.0001976
-6.68469e-07
0.0059414
0.000329015
-7.70972e-07
0.00586008
0.000197485
4.58771e-06
0.0057804
0.000432307
-9.05167e-06
0.00570076
0.000159635
1.62337e-05
0.00561197
0.000481
-2.34294e-05
0.0055454
0.000137212
3.15255e-05
0.00545765
0.00044722
-3.61314e-05
0.00540059
0.000163032
3.8185e-05
0.00531408
0.000388587
-3.49444e-05
0.00526656
0.000202614
3.03596e-05
0.00515562
0.000395455
-2.49372e-05
0.00512536
0.000236533
1.82737e-05
0.00498769
0.000402985
-2.7996e-06
0.00491471
0.000435359
-2.10558e-05
0.00483199
0.000216953
4.93748e-05
0.00463923
0.000759307
-3.90098e-05
0.00459819
0.000167279
1.90271e-05
0.00436843
0.000752557
3.24551e-05
0.00429018
0.00025057
8.75277e-05
0.00394727
0.000757644
-5.80181e-05
0.00372628
0.000564681
4.26536e-05
0.0039087
-0.000741008
0.000664486
0.00411591
-0.00198877
0.000846933
0.00428872
-0.00132755
0.000578514
0.00435638
-0.00275473
0.00047776
0.00484152
-0.00264764
0.000184961
0.00514183
-0.00219696
-4.0891e-05
-0.00348378
9.49348e-05
0.00534616
-5.49185e-05
1.42497e-06
0.00536772
-9.822e-05
-1.76111e-06
0.00541399
-0.000196317
6.50879e-07
0.00546407
-0.000223306
-1.55436e-06
0.00554665
-0.000340629
1.65513e-06
0.00561914
-0.000315422
-2.22707e-06
0.00571569
-0.000421851
2.07645e-06
0.00580131
-0.000364455
-2.28615e-06
0.00590022
-0.000443253
2.03463e-06
0.00598354
-0.000354551
-1.01602e-06
0.00606786
-0.00039659
1.57466e-06
0.00613796
-0.000291029
-4.10316e-08
0.00619567
-0.000297935
1.44251e-06
0.00624544
-0.000186055
-7.49499e-07
0.00626902
-0.000162709
2.18976e-06
0.00629221
-5.59573e-05
-2.7624e-06
0.00627978
-9.27155e-06
3.3349e-06
0.00627492
7.13775e-05
-4.26272e-06
0.00623397
0.000135759
4.35025e-06
0.0061974
0.000187763
-4.66317e-06
0.006137
0.000269811
4.63671e-06
0.00606936
0.000268819
-3.58138e-06
0.00599415
0.000401368
2.85935e-06
0.0059099
0.000281159
5.79544e-07
0.00582036
0.00052607
-4.21899e-06
0.00574106
0.00022702
1.19096e-05
0.00564309
0.000599109
-2.01355e-05
0.00557846
0.000173195
2.8642e-05
0.00549594
0.000563823
-3.40793e-05
0.00542415
0.000204625
3.01945e-05
0.00537365
0.000463089
-2.40024e-05
0.00529084
0.000273477
1.19451e-05
0.00521886
0.000481572
-1.41312e-05
0.00517487
0.00026568
1.48429e-05
0.00503055
0.000560551
-1.32474e-05
0.0049847
0.000515612
-3.44029e-05
0.00488355
0.000215901
0.000102199
0.00465957
0.001101
-0.000117713
0.00467882
0.000105537
4.24974e-05
0.00436461
0.000945486
0.000121276
0.00425044
0.000372284
-7.53952e-06
0.00384714
0.0012846
-0.000123656
0.00358428
0.000445067
0.000382468
0.00345385
-0.00156086
0.000950277
0.00327746
-0.00255551
0.000743142
0.00328719
-0.00191713
0.000579847
0.00313892
-0.00318608
0.000579619
0.00338675
-0.00325985
0.000364378
0.00373172
-0.00288749
0.00034557
-0.00386246
0.00028296
0.00534863
-7.25899e-05
2.37371e-06
0.00537322
-0.000120181
-2.62464e-06
0.00542322
-0.000247356
1.04122e-06
0.00547928
-0.000277103
-2.26178e-06
0.00557399
-0.00043777
2.42906e-06
0.00565325
-0.00039248
-2.2024e-06
0.00576075
-0.000530797
1.44806e-06
0.00585582
-0.000457472
-2.05476e-06
0.005966
-0.000554462
1.0229e-06
0.00605927
-0.000447295
-5.19028e-07
0.0061503
-0.000488168
5.48886e-07
0.0062287
-0.000371657
2.22125e-06
0.00628853
-0.000356387
-1.3711e-06
0.00634562
-0.000246953
3.79896e-06
0.00636866
-0.000183699
-2.04661e-06
0.00639443
-8.32585e-05
1.52715e-06
0.00638029
4.68574e-06
1.83893e-07
0.00637319
8.19617e-05
-3.4777e-06
0.00632929
0.000174439
5.21419e-06
0.00628929
0.000235742
-7.97424e-06
0.00622076
0.00032841
9.92701e-06
0.00615057
0.000350749
-1.17398e-05
0.00606275
0.000475203
1.39901e-05
0.00597454
0.000383167
-1.38034e-05
0.00587416
0.0006129
1.35482e-05
0.00578763
0.000321097
-7.54255e-06
0.00569651
0.000692275
-2.05065e-06
0.00560833
0.000247741
1.36412e-05
0.00556175
0.00063838
-2.7976e-05
0.0054619
0.000280991
2.34823e-05
0.00544559
0.000492311
-1.29086e-05
0.00534672
0.000391135
-1.87944e-05
0.00530062
0.000500752
2.69194e-05
0.0052467
0.00033497
-1.53714e-05
0.00511478
0.000723693
-3.12189e-05
0.00505353
0.000548118
2.87449e-05
0.00499607
0.000234518
3.88449e-05
0.00472461
0.00151828
-0.000145824
0.00473561
1.46832e-05
7.98493e-05
0.00459566
0.000958872
0.000126563
0.00422533
0.000951193
-0.000208576
0.00393201
0.00156962
8.2944e-06
0.00350398
0.000364368
0.000508732
0.00282518
-0.00160655
0.000724498
0.00242523
-0.00262905
0.000473487
0.00256734
-0.00243445
0.000375211
0.0025187
-0.00342976
0.000292312
0.00258298
-0.00355229
0.000228159
0.00293732
-0.00341533
0.000173503
-0.00410421
6.77767e-05
0.00535287
-9.55097e-05
3.38681e-06
0.00537976
-0.000143744
-3.32853e-06
0.00543536
-0.000304499
1.54749e-06
0.00549872
-0.000336574
-3.88777e-06
0.0056089
-0.000552821
4.86596e-06
0.00569662
-0.000477347
-2.85698e-06
0.00581718
-0.000652052
6.9387e-07
0.00592544
-0.00056552
-2.07407e-07
0.00605051
-0.000676472
-3.05738e-06
0.00615663
-0.000555829
2.41226e-06
0.00625648
-0.000586159
-1.85756e-06
0.00634354
-0.000462918
4.19369e-06
0.00640736
-0.000418089
-2.1146e-06
0.00647089
-0.000316115
5.63241e-06
0.00649675
-0.000205799
-3.76235e-06
0.00652217
-0.000114365
5.68965e-06
0.00650987
2.1444e-05
-4.4562e-06
0.00649673
9.22591e-05
2.8439e-06
0.00645229
0.000220244
-1.36434e-06
0.00640593
0.000283918
-1.81915e-06
0.0063296
0.00039994
4.79774e-06
0.00625541
0.00043355
-8.60694e-06
0.00614923
0.000567532
1.38447e-05
0.00605784
0.000494342
-1.97829e-05
0.00594624
0.000695888
2.86087e-05
0.00583414
0.000466614
-3.34092e-05
0.00576991
0.000722171
3.43266e-05
0.00564832
0.00039384
-2.45037e-05
0.00561924
0.000664098
3.36161e-06
0.00553295
0.00035276
1.45214e-05
0.00550224
0.00054198
-1.89596e-05
0.00543612
0.000463954
-6.69664e-06
0.00538429
0.000514928
3.76447e-05
0.00530635
0.000445615
-3.26963e-05
0.00523237
0.000840534
-4.28685e-05
0.00514327
0.000513366
0.000123858
0.00505774
0.000436318
-0.000116271
0.00493196
0.0016845
-4.04426e-05
0.00477068
7.8337e-05
9.7628e-05
0.00481963
0.000910618
-6.92755e-07
0.00446268
0.00160704
-0.000298903
0.00414343
0.00172808
0.000160795
0.00358892
0.000648021
0.00027086
0.00307364
-0.00142746
0.000336184
0.00294463
-0.00279082
0.000290778
0.00322203
-0.00282324
0.000111395
0.00328312
-0.00348942
-1.42846e-06
0.00324383
-0.00347927
-3.37301e-05
0.00336387
-0.0035341
-1.27167e-06
-0.00406757
-3.14089e-05
0.00535827
-0.000124421
3.97383e-06
0.00538761
-0.000170948
-2.13035e-06
0.00545065
-0.000367439
-1.02381e-07
0.0055241
-0.000405034
-4.98486e-06
0.00565247
-0.000688824
7.63006e-06
0.00574969
-0.000569268
-5.29609e-06
0.00588612
-0.000791887
3.40005e-06
0.00601266
-0.000690433
-1.6293e-06
0.00615731
-0.000816674
-4.44408e-06
0.00627999
-0.00068366
5.15235e-06
0.0063927
-0.000692985
-5.88415e-06
0.00648767
-0.000567786
9.89637e-06
0.00655687
-0.000481176
-6.1086e-06
0.00662846
-0.000397453
9.74611e-06
0.00665639
-0.000228818
-4.91742e-06
0.00668475
-0.000149581
6.85557e-06
0.00667152
3.80128e-05
-3.32904e-06
0.00665291
0.00010827
2.59024e-06
0.00660658
0.000268196
-1.61829e-06
0.006553
0.000336052
1.44949e-06
0.00646863
0.00048497
-6.66414e-07
0.00638336
0.000517278
1.54296e-06
0.00626756
0.000683778
-4.43769e-07
0.00615101
0.000612728
-1.83581e-06
0.00603761
0.000800112
9.17706e-06
0.0059033
0.00062027
-1.93432e-05
0.00582552
0.000763565
3.63873e-05
0.00571004
0.000553356
-4.40399e-05
0.00566913
0.000660476
4.45295e-05
0.00562249
0.000422448
-2.30423e-05
0.00553551
0.000619216
9.73681e-06
0.00554603
0.00045954
-6.10393e-06
0.00549827
0.000521432
4.12546e-05
0.00534611
0.000659634
-6.18566e-05
0.00536847
0.000786864
3.13061e-05
0.005236
0.000549306
9.65341e-05
0.00510486
0.000747027
-0.000179565
0.00509836
0.00161244
7.85574e-05
0.00483028
0.000254856
9.15609e-05
0.00494273
0.000869063
-7.08964e-05
0.00484132
0.00192747
-0.000219012
0.00441713
0.00203698
0.00011529
0.00404207
0.000938295
8.47849e-05
0.00377358
-0.00125736
9.8391e-05
0.00349358
-0.00265165
0.000140823
0.00345542
-0.00283462
4.95397e-05
0.00344913
-0.00346047
-2.26633e-05
0.00342626
-0.0034021
-5.43077e-05
0.00337464
-0.00346113
-2.13481e-05
-0.00392211
-5.75953e-05
0.00536519
-0.000162036
5.76591e-06
0.0053953
-0.000200304
-7.57679e-07
0.00546947
-0.00043954
-2.07425e-06
0.00555815
-0.000485328
-8.38617e-06
0.00570444
-0.00084493
9.82102e-06
0.00581253
-0.000669962
-7.39147e-06
0.00597057
-0.000956821
6.88645e-06
0.00612406
-0.000835821
-8.09862e-06
0.00628745
-0.000985912
5.84463e-06
0.00643656
-0.00082742
-5.34374e-06
0.0065616
-0.000822087
4.05922e-06
0.00666788
-0.000676785
2.72224e-06
0.00674727
-0.000558274
-2.29997e-06
0.0068213
-0.000482826
1.13501e-05
0.00685817
-0.000257399
-8.29799e-06
0.00688663
-0.000191997
1.39564e-05
0.00687294
6.12294e-05
-9.52141e-06
0.00684945
0.000122403
9.3524e-06
0.00679962
0.000323713
-5.68575e-06
0.00673433
0.000397429
3.91734e-06
0.00664825
0.000571349
-2.99578e-07
0.00654129
0.000621668
2.57075e-06
0.00640834
0.000818344
-1.61769e-06
0.00628085
0.000736534
3.68228e-06
0.00612855
0.000952463
-4.87123e-08
0.00599108
0.000765989
-8.24733e-06
0.00590478
0.00082316
2.67024e-05
0.00576684
0.000730338
-3.90443e-05
0.00573248
0.000647827
4.70126e-05
0.00570875
0.000464964
-1.87908e-05
0.00564963
0.000676254
2.09042e-06
0.00563845
0.000466104
4.60806e-06
0.00558348
0.000523827
5.2575e-05
0.00551612
0.000822283
-9.52875e-05
0.0054861
0.000716091
0.000100795
0.00532715
0.000714775
-6.51918e-06
0.00522585
0.000933217
-8.48887e-05
0.00511316
0.00159496
0.000130173
0.0049755
0.000390506
2.00979e-06
0.00494263
0.000910249
-8.31098e-06
0.00493208
0.00199993
-6.1927e-05
0.00475196
0.00229964
-8.25364e-05
0.00447101
0.00116521
5.40324e-05
0.00388226
-0.000798605
0.000129988
0.00328003
-0.0021569
0.000107484
0.0030259
-0.0026384
5.79142e-05
0.00297082
-0.00335478
-5.06152e-05
0.00301933
-0.00342397
-2.66403e-05
0.00307358
-0.00342023
-9.51444e-05
-0.00381258
-0.00015634
0.00537318
-0.000208567
6.68329e-06
0.00540012
-0.000233029
5.78609e-06
0.00549265
-0.000525314
-6.75034e-06
0.00560697
-0.000584439
-1.52097e-05
0.00576135
-0.00101329
1.39782e-05
0.00588869
-0.000787432
-9.87088e-06
0.00608455
-0.00115367
9.93631e-07
0.00626487
-0.00101111
-5.04037e-06
0.00645323
-0.00118508
1.08203e-05
0.00662926
-0.000987378
-1.60737e-05
0.00676547
-0.000980666
2.23726e-05
0.00689711
-0.000785949
-2.24795e-05
0.00698426
-0.000661925
1.6499e-05
0.00706207
-0.000555956
-4.68082e-06
0.00711099
-0.000308141
1.82645e-06
0.00712715
-0.000219838
1.16796e-05
0.00713405
6.85338e-05
-1.42018e-05
0.00708367
0.000152068
2.07159e-05
0.00704796
0.000381085
-2.16636e-05
0.00696299
0.000461123
2.12726e-05
0.00686416
0.000684991
-1.4806e-05
0.0067515
0.000721464
1.28615e-05
0.00657804
0.00100022
-8.4197e-06
0.00643572
0.000872863
5.98828e-06
0.00623692
0.00115089
3.68483e-07
0.00610399
0.000909524
-1.06002e-05
0.00597604
0.00092276
2.83519e-05
0.00584119
0.000908273
-4.30849e-05
0.00584584
0.000591405
5.17702e-05
0.00576279
0.000564548
-1.65393e-05
0.0057783
0.000666211
-5.46555e-06
0.00579833
0.000399827
4.62506e-05
0.00573086
0.000599334
-8.03794e-06
0.00565314
0.00094911
-4.91044e-05
0.00553574
0.000724872
0.000108616
0.00551634
0.000775425
-4.12481e-05
0.00545732
0.0010445
-5.22657e-05
0.00524872
0.00173864
6.49185e-05
0.00515616
0.000504732
-2.16689e-05
0.00513579
0.000855224
7.53982e-05
0.00513983
0.00195049
4.54026e-05
0.00511176
0.00243437
-0.000106652
0.00476269
0.00149874
1.5542e-05
0.00399772
-0.00014077
0.000107136
0.0034766
-0.00169678
6.10053e-05
0.00323117
-0.00236723
-2.57398e-05
0.00320927
-0.00318856
-0.000144314
0.00317928
-0.0033328
-6.11844e-05
0.00317727
-0.00329516
-0.000123054
-0.00371697
-0.000201442
0.0053779
-0.000259161
6.02687e-06
0.00539767
-0.000272399
1.96044e-05
0.00552414
-0.000626949
-2.48402e-05
0.00567407
-0.000723522
-1.08421e-05
0.00581143
-0.0011644
1.3742e-05
0.00599654
-0.00095956
-1.29735e-05
0.00623711
-0.00138093
-1.33132e-05
0.00644676
-0.00123447
1.37085e-05
0.00666592
-0.00139173
-1.25003e-05
0.00686726
-0.001196
7.27774e-06
0.00701329
-0.00113751
1.08157e-05
0.00719092
-0.000933597
-2.99818e-05
0.00727417
-0.000768726
2.35582e-05
0.00737334
-0.00062486
-3.02735e-05
0.00741004
-0.000370082
2.52479e-05
0.00743298
-0.000235658
-7.11777e-06
0.00744509
5.71983e-05
-7.77345e-07
0.00738109
0.000212642
3.42817e-06
0.00736588
0.000408473
-1.21801e-05
0.00723592
0.000574516
1.65631e-05
0.00715974
0.000782941
-2.17717e-05
0.00699672
0.000856821
2.7667e-05
0.00679858
0.00122647
-2.81034e-05
0.0066273
0.00102294
2.12026e-05
0.00637236
0.00142489
-1.90658e-05
0.00620755
0.00107399
3.45028e-07
0.00606239
0.00104143
2.64902e-05
0.00593211
0.0010889
-5.03447e-05
0.00589479
0.000570895
5.78241e-05
0.00591553
0.00056232
-1.85038e-05
0.00593977
0.000635532
6.43791e-06
0.00589901
0.000392504
4.80843e-05
0.00594488
0.000580989
-2.75346e-05
0.00588329
0.000988053
2.2649e-05
0.00571747
0.00087891
1.178e-05
0.00563017
0.000890128
-2.73987e-05
0.00548881
0.00116958
1.62797e-05
0.00538814
0.00183155
7.75713e-06
0.00518061
0.000715758
-3.49044e-06
0.00499745
0.00102013
1.82494e-05
0.00504883
0.00205394
-0.000154832
0.00506428
0.00251484
-9.59241e-05
0.00474899
0.00188157
-6.75347e-05
0.00437308
0.000260057
-2.49205e-05
0.00414481
-0.00146946
9.4535e-07
0.00380482
-0.00197453
-5.27202e-05
0.00363786
-0.0028893
-0.000132297
0.0034653
-0.00308471
-7.55366e-05
0.00331326
-0.00304886
-9.42603e-05
-0.00360635
-0.000172392
0.00537058
-0.00030178
5.37028e-06
0.00539633
-0.000324012
2.58644e-05
0.00556733
-0.000751567
-4.63781e-05
0.00574806
-0.000917942
1.3686e-05
0.00585833
-0.00127768
3.00707e-06
0.00616056
-0.00124661
-1.51768e-05
0.00641626
-0.00162517
-1.14537e-05
0.00667762
-0.00151109
1.5252e-05
0.00694021
-0.00162385
-3.04726e-05
0.00716031
-0.001452
3.58889e-05
0.00734123
-0.00129457
-2.38516e-05
0.00755152
-0.00114811
4.2204e-06
0.00763359
-0.00083897
-1.18308e-05
0.0077554
-0.000719284
-2.73873e-05
0.00776741
-0.000418738
3.6648e-05
0.00781484
-0.000254517
-2.85731e-05
0.00780859
4.72875e-05
1.61649e-05
0.00776736
0.000265377
-1.15073e-05
0.00774297
0.000444903
-1.2034e-05
0.00761317
0.00070218
2.12759e-06
0.00751841
0.0008737
4.00389e-06
0.0073044
0.00108418
-1.33458e-05
0.00709041
0.0014337
6.76332e-06
0.00682795
0.00127482
1.05803e-05
0.0065769
0.00171588
-3.99411e-05
0.00632509
0.00129611
2.96886e-05
0.00615268
0.00121979
-5.94667e-06
0.00604115
0.00122767
-2.72362e-05
0.00593631
0.000607056
6.86796e-05
0.0060788
0.000412931
6.90245e-06
0.006173
0.000533876
7.45558e-06
0.00614698
0.000367945
5.0578e-05
0.00615383
0.000545493
2.86411e-05
0.00606877
0.00108768
-1.45668e-05
0.00599414
0.000975127
-2.15877e-05
0.00588226
0.000959213
4.27959e-05
0.00577128
0.00127052
1.00418e-05
0.00582417
0.00187777
-9.91079e-05
0.00564748
0.000930238
-3.77927e-05
0.00547526
0.000985415
0.000206934
0.00560944
0.00188793
3.18352e-05
0.00565008
0.00253102
-5.68199e-05
0.00540253
0.00233287
-0.000203746
0.00498901
0.000757021
-8.34439e-05
0.00450973
-0.00108633
9.61479e-05
0.00400772
-0.00154823
7.57088e-05
0.00366904
-0.00249702
-5.35979e-05
0.00352689
-0.00287334
-6.92159e-05
0.0033777
-0.00282419
-7.54789e-05
-0.00347441
-0.00015317
0.00534168
-0.000314441
4.32093e-06
0.00541813
-0.000413139
1.2671e-05
0.00561036
-0.000902908
-4.08909e-05
0.00579402
-0.00113898
3.73754e-05
0.00596326
-0.00143398
-1.29405e-05
0.00636247
-0.00163597
-9.84544e-06
0.00661336
-0.00188618
1.01179e-05
0.00697439
-0.00186161
-1.05082e-05
0.00727775
-0.00191531
-1.18973e-05
0.0075322
-0.00173256
2.61087e-05
0.00778958
-0.00152264
-2.93171e-05
0.0079687
-0.00134645
1.92237e-05
0.00808671
-0.000921585
-3.53944e-05
0.0081856
-0.000836071
1.78928e-05
0.00821476
-0.000438598
-9.29953e-06
0.00826816
-0.000301636
-6.28121e-06
0.00825128
3.8435e-05
2.57318e-05
0.00825271
0.00030264
-3.86928e-05
0.00818968
0.000490749
1.71878e-05
0.00810869
0.00080709
-2.39252e-05
0.00793872
0.00104004
3.63415e-06
0.00771878
0.00129014
1.39719e-05
0.00743041
0.00174142
-1.93553e-05
0.00706383
0.0016505
-9.10226e-06
0.00679932
0.00196
2.04062e-05
0.00648035
0.00163419
-1.91129e-05
0.00626546
0.00144502
-1.03552e-05
0.00611747
0.00134919
2.64766e-05
0.00605768
0.000640557
2.62882e-05
0.00623634
0.000141246
9.30269e-05
0.00641087
0.000216466
0.000142879
0.00650849
0.000167662
0.000102665
0.0064886
0.000541559
2.38172e-05
0.00635897
0.00123726
-1.99453e-05
0.0062144
0.00105112
6.85661e-05
0.00602247
0.00117075
-1.96083e-05
0.00577274
0.00158783
-6.75784e-05
0.00537827
0.00226859
3.65756e-06
0.00492679
0.00135217
2.95484e-05
0.00488748
0.00093829
8.64376e-05
0.00524496
0.00165722
-0.00012677
0.00548177
0.002541
-0.000246791
0.00550499
0.00244938
-0.000139731
0.00501807
0.00100222
0.000241729
0.00432099
-0.000738063
0.000348816
0.00390641
-0.0012983
0.000164651
0.00368236
-0.00213107
-0.000141906
0.00366774
-0.00274777
-0.00011095
0.00354504
-0.00264266
-5.88281e-05
-0.00332008
-0.000167516
0.00533032
-0.000309449
-1.97602e-06
0.00546452
-0.000547539
2.00877e-07
0.00563526
-0.00106775
-5.90163e-06
0.00583583
-0.00136621
2.66727e-05
0.00615236
-0.00173595
-1.45535e-05
0.00654084
-0.00203483
1.03766e-05
0.0068788
-0.00223563
1.14941e-05
0.00734837
-0.00230837
-2.27998e-05
0.00768977
-0.00227293
1.62157e-05
0.00802648
-0.0020827
1.34395e-05
0.00832949
-0.00178973
-3.59272e-05
0.00845355
-0.00148844
1.79223e-05
0.00862987
-0.00109746
-4.45224e-07
0.00869745
-0.000911756
8.10645e-06
0.00876917
-0.000505148
-5.16908e-06
0.00881072
-0.000343067
-1.2082e-07
0.00881831
1.65309e-05
1.43156e-05
0.00883115
0.000289257
5.47026e-07
0.00876808
0.000575506
-2.16873e-05
0.00869476
0.000864784
1.56188e-05
0.0084904
0.00125414
-9.74324e-06
0.00821022
0.00158269
-1.23678e-05
0.00784283
0.00206433
4.4486e-05
0.00739469
0.0021242
-2.55641e-05
0.00696191
0.00241287
-2.00937e-05
0.00659681
0.00199247
6.81848e-06
0.00633014
0.00163411
7.75857e-05
0.00610671
0.00157617
-3.55044e-06
0.00610183
0.000564447
8.09838e-05
0.00644407
-0.00053914
0.00033815
0.00681595
-0.000456745
0.00030133
0.00692521
-0.000141954
0.000200355
0.00683767
0.000440077
0.00018902
0.00671009
0.00129361
7.12351e-05
0.00647056
0.00122013
7.0521e-05
0.00639953
0.0012384
3.39462e-06
0.00657364
0.00139502
1.87017e-05
0.00661462
0.00230938
-8.1778e-05
0.00643962
0.00160315
-7.59811e-05
0.00594158
0.00132599
0.000110343
0.00563623
0.0019964
-3.38278e-05
0.00555844
0.00281531
-0.000196521
0.0054417
0.00254584
2.02822e-05
0.00487267
0.00127707
0.00029417
0.00439027
-0.000535683
0.000280015
0.00413561
-0.00107667
3.30387e-05
0.00403458
-0.0016942
-0.00033585
0.00399968
-0.00252754
-0.000185327
0.0038122
-0.00235655
-9.86319e-05
-0.0031072
-0.000245338
0.00538048
-0.000343334
-1.32631e-05
0.00549587
-0.000677995
1.50669e-05
0.00567338
-0.00125576
1.0498e-05
0.00595849
-0.00164004
-1.1285e-05
0.00633337
-0.00212571
1.48735e-05
0.00673494
-0.00243696
5.64321e-07
0.00724558
-0.00274998
3.70194e-06
0.0077779
-0.00283197
-8.71908e-06
0.00823409
-0.00275862
2.95043e-05
0.00863542
-0.00246489
-1.91376e-05
0.00890398
-0.00204818
-1.01114e-05
0.00905034
-0.00165986
2.50624e-05
0.00923574
-0.00127632
-6.54167e-06
0.0093227
-0.00101621
1.74948e-05
0.00941713
-0.000580417
-1.91651e-05
0.00946818
-0.000414368
2.02506e-05
0.00948302
1.39577e-05
-1.22653e-05
0.00951599
0.000252494
3.7889e-06
0.00947065
0.000584494
3.63523e-05
0.00938533
0.000997918
-4.78099e-05
0.00916116
0.00145168
2.66258e-05
0.00881173
0.00187068
6.14471e-05
0.00831647
0.00266237
-0.000102783
0.00786072
0.0024908
8.91505e-05
0.00735148
0.00289849
2.36272e-05
0.00688814
0.0025418
-8.59847e-05
0.00657263
0.00187538
7.42395e-05
0.00625069
0.0018613
3.68129e-05
0.00596908
0.000580535
0.000265525
0.006537
-0.00197836
0.000871295
0.00740319
-0.00229549
0.000972558
0.00759209
-0.00102701
0.000696165
0.00748512
0.000201304
0.000345742
0.0072922
0.00152364
-3.71122e-05
0.0067019
0.00181964
-9.21096e-06
0.00599663
0.00181761
0.000126058
0.00564527
0.00167546
7.092e-05
0.00563036
0.0024223
-9.80181e-05
0.00564848
0.00162215
-3.71094e-05
0.0055048
0.00121264
0.000257027
0.00565462
0.00188997
-4.33903e-05
0.00583534
0.0028148
-0.000180211
0.00564967
0.00261662
0.00011489
0.0051063
0.00154107
0.000279367
0.00477174
-0.000440445
0.000239321
0.00449028
-0.000828544
3.33386e-05
0.00438537
-0.00120593
-0.000383351
0.00436652
-0.0022664
-0.000242287
0.00417533
-0.00207377
-9.1594e-05
-0.0028732
-0.000225017
0.00545194
-0.000454299
-7.63454e-06
0.00548163
-0.000725282
1.75902e-05
0.00577375
-0.00154214
-5.73272e-06
0.00608291
-0.0019454
-3.8016e-06
0.00648561
-0.00253871
1.03001e-05
0.00702334
-0.00296336
-1.13337e-05
0.00765651
-0.00339164
8.48314e-06
0.00830632
-0.00348717
5.39342e-06
0.00890643
-0.00334987
-8.86818e-06
0.00931127
-0.00286463
-5.09304e-06
0.0095655
-0.00230776
5.35061e-06
0.00974907
-0.00186015
1.67239e-05
0.00990214
-0.00143012
7.39686e-07
0.00996806
-0.00105987
-2.22601e-05
0.0100824
-0.000743814
4.90736e-05
0.0101159
-0.000383357
-6.45146e-05
0.0101379
-5.36092e-05
4.55857e-05
0.0101771
0.000187617
2.56014e-05
0.0102744
0.000573021
-8.57812e-05
0.0100964
0.00104408
0.000131786
0.00998708
0.0016383
-7.72524e-05
0.00952395
0.00239826
-6.44537e-05
0.008748
0.00317432
0.000263992
0.00803475
0.00338846
-0.000184411
0.00732942
0.0035902
1.36193e-05
0.00677428
0.00294128
0.000155671
0.00616332
0.00227519
0.000211145
0.00589339
0.00212444
6.79316e-06
0.00541888
0.000397817
0.000657224
0.00537848
-0.00370033
0.00176238
0.00639534
-0.00501764
0.00170529
0.00751465
-0.00333655
0.00119023
0.0077205
-0.000846314
0.000841767
0.0075719
0.00129523
0.000377013
0.00762644
0.00162175
0.000143351
0.00744442
0.00195229
4.73282e-05
0.00694196
0.00231016
-0.000132243
0.00647184
0.00295885
-6.64272e-05
0.0060207
0.00202435
4.89473e-05
0.00567312
0.00132177
0.000238444
0.00587218
0.00192108
-0.000230173
0.00592687
0.00290609
-0.00014598
0.00561433
0.00265503
0.000274122
0.00514881
0.00170772
0.000298869
0.00482203
-0.000293195
0.00017953
0.00460501
-0.000635428
2.39028e-05
0.00459422
-0.000897093
-0.00029805
0.0046481
-0.0021374
-0.000182885
0.00446906
-0.00180453
-9.01939e-05
-0.00260508
-0.000224567
0.00546441
-0.000588401
3.02727e-06
0.00549155
-0.00074221
-1.02127e-05
0.00587416
-0.00192738
2.63705e-06
0.00610771
-0.00218784
8.8952e-06
0.00670357
-0.0031205
-1.40706e-05
0.00732675
-0.00360337
1.68266e-05
0.00818607
-0.00424667
-4.28569e-06
0.00898064
-0.00427601
-5.73793e-06
0.00964758
-0.00112226
2.2797e-06
-0.000886993
-0.00112186
-0.00088798
0.0100863
-0.000918037
-7.82111e-07
-0.000733334
-0.00091714
-0.000734074
0.0103389
-0.000711039
1.76744e-05
-0.000578499
-0.000709316
-0.000579137
0.01044
-0.000521343
-1.01061e-05
-0.000453182
-0.000521575
-0.000455111
0.0103944
-0.00137482
-9.69141e-06
0.0102215
-0.000922094
3.51629e-05
0.0103031
-0.000768404
-5.7054e-05
0.0100507
-0.000208117
7.71479e-05
0.0102282
-0.000204515
-2.65644e-05
0.0103828
2.57087e-05
7.33024e-06
0.010305
0.000528747
0.000122023
0.0107455
0.000807432
-0.0002038
0.0106135
0.00164909
0.000121211
0.0103215
0.00252794
0.000162352
0.0101697
0.00383353
-0.000507401
0.00891131
0.0040851
0.000561696
0.00770837
0.00483646
-4.33166e-05
0.00747522
0.0033348
-0.000160374
0.00639402
0.00301965
0.000336739
0.00612302
0.00226121
0.000134222
0.00473912
0.000140277
0.00164145
0.00290771
-0.00414256
0.00227364
0.00247937
-0.00642886
0.00183955
0.00447749
-0.0063652
0.00103052
0.00702943
-0.0037718
0.000373548
0.00785596
0.000440446