0 	1.20836e-07
1.57135 	-7.3113e-07
3.1427 	-9.58479e-06
4.71405 	-3.86136e-05
6.28539 	-0.000115073
7.85674 	-0.00032105
9.42809 	-0.0010033
10.9994 	-0.00390369
12.5708 	-0.00727598
14.1421 	0.250027
