0 	0 	0 	0
1.57135 	-0.00108902 	0.0010481 	0
3.1427 	-0.00239859 	0.00203419 	0
4.71405 	-0.0040238 	0.0027345 	0
6.28539 	-0.00619747 	0.00310036 	0
7.85674 	-0.00929712 	0.00350028 	0
9.42809 	-0.0138561 	0.00594649 	0
10.9994 	-0.0145653 	0.0192794 	0
12.5708 	0.0167546 	0.0116256 	0
14.1421 	0.5 	0 	0
