/*--------------------------------*- C++ -*----------------------------------*\
  =========                 |
  \\      /  F ield         | OpenFOAM: The Open Source CFD Toolbox
   \\    /   O peration     | Website:  https://openfoam.org
    \\  /    A nd           | Version:  8
     \\/     M anipulation  |
\*---------------------------------------------------------------------------*/
FoamFile
{
    version     2.0;
    format      ascii;
    class       volVectorField;
    location    "1.49";
    object      U;
}
// * * * * * * * * * * * * * * * * * * * * * * * * * * * * * * * * * * * * * //

dimensions      [0 1 -1 0 0 0 0];

internalField   nonuniform List<vector> 
400
(
(0.0249906 1.47448e-15 0)
(0.0249906 1.17215e-15 0)
(0.0249906 6.21639e-16 0)
(0.0249906 3.85496e-16 0)
(0.0249906 2.02676e-16 0)
(0.0249906 -5.20661e-17 0)
(0.0249906 -2.14721e-16 0)
(0.0249906 -4.37536e-16 0)
(0.0249906 -5.37372e-16 0)
(0.0249906 -6.43057e-16 0)
(0.0249906 -6.36382e-16 0)
(0.0249906 -5.86084e-16 0)
(0.0249906 -4.90276e-16 0)
(0.0249906 -3.13394e-16 0)
(0.0249906 -1.59375e-16 0)
(0.0249906 9.30448e-17 0)
(0.0249906 2.64668e-16 0)
(0.0249906 5.20342e-16 0)
(0.0249906 6.74986e-16 0)
(0.0249906 1.21902e-15 0)
(0.0749722 2.68679e-15 0)
(0.0749722 1.71932e-15 0)
(0.0749722 3.86613e-17 0)
(0.0749722 -1.06893e-15 0)
(0.0749722 -2.13738e-15 0)
(0.0749722 -2.94111e-15 0)
(0.0749722 -3.59075e-15 0)
(0.0749722 -3.82271e-15 0)
(0.0749722 -3.78566e-15 0)
(0.0749722 -3.28106e-15 0)
(0.0749722 -2.49227e-15 0)
(0.0749722 -1.42474e-15 0)
(0.0749722 -2.19577e-16 0)
(0.0749722 9.78129e-16 0)
(0.0749722 2.13069e-15 0)
(0.0749722 3.00215e-15 0)
(0.0749722 3.66389e-15 0)
(0.0749722 3.82642e-15 0)
(0.0749722 3.67206e-15 0)
(0.0749722 3.57399e-15 0)
(0.124954 4.57303e-15 0)
(0.124954 3.33194e-16 0)
(0.124954 -3.54164e-15 0)
(0.124954 -6.91849e-15 0)
(0.124954 -9.59727e-15 0)
(0.124954 -1.1506e-14 0)
(0.124954 -1.22853e-14 0)
(0.124954 -1.20234e-14 0)
(0.124954 -1.0492e-14 0)
(0.124954 -7.97683e-15 0)
(0.124954 -4.56416e-15 0)
(0.124954 -7.23806e-16 0)
(0.124954 3.22528e-15 0)
(0.124954 6.90164e-15 0)
(0.124954 9.87106e-15 0)
(0.124954 1.19353e-14 0)
(0.124954 1.27101e-14 0)
(0.124954 1.22343e-14 0)
(0.124954 1.03799e-14 0)
(0.124954 7.69407e-15 0)
(0.174938 4.93606e-15 0)
(0.174938 -3.44082e-15 0)
(0.174938 -1.12861e-14 0)
(0.174938 -1.79078e-14 0)
(0.174938 -2.28726e-14 0)
(0.174938 -2.56663e-14 0)
(0.174938 -2.61588e-14 0)
(0.174938 -2.40654e-14 0)
(0.174938 -1.97088e-14 0)
(0.174938 -1.33116e-14 0)
(0.174938 -5.60891e-15 0)
(0.174938 2.72681e-15 0)
(0.174938 1.08286e-14 0)
(0.174938 1.79026e-14 0)
(0.174938 2.32801e-14 0)
(0.174938 2.63098e-14 0)
(0.174938 2.67673e-14 0)
(0.174938 2.44363e-14 0)
(0.174938 1.96387e-14 0)
(0.174938 1.28321e-14 0)
(0.224923 4.31047e-15 0)
(0.224923 -9.43525e-15 0)
(0.224923 -2.20924e-14 0)
(0.224923 -3.24994e-14 0)
(0.224923 -3.97827e-14 0)
(0.224923 -4.33021e-14 0)
(0.224923 -4.26718e-14 0)
(0.224923 -3.79885e-14 0)
(0.224923 -2.9526e-14 0)
(0.224923 -1.82317e-14 0)
(0.224923 -5.03978e-15 0)
(0.224923 8.63946e-15 0)
(0.224923 2.15965e-14 0)
(0.224923 3.24789e-14 0)
(0.224923 4.01711e-14 0)
(0.224923 4.39575e-14 0)
(0.224923 4.33352e-14 0)
(0.224923 3.841e-14 0)
(0.224923 2.95435e-14 0)
(0.224923 1.7793e-14 0)
(0.274909 2.57447e-15 0)
(0.274909 -1.6472e-14 0)
(0.274909 -3.3717e-14 0)
(0.274909 -4.76442e-14 0)
(0.274909 -5.69002e-14 0)
(0.274909 -6.0702e-14 0)
(0.274909 -5.86659e-14 0)
(0.274909 -5.09421e-14 0)
(0.274909 -3.82592e-14 0)
(0.274909 -2.18037e-14 0)
(0.274909 -3.24081e-15 0)
(0.274909 1.57296e-14 0)
(0.274909 3.31966e-14 0)
(0.274909 4.75368e-14 0)
(0.274909 5.7245e-14 0)
(0.274909 6.13177e-14 0)
(0.274909 5.93148e-14 0)
(0.274909 5.1366e-14 0)
(0.274909 3.83239e-14 0)
(0.274909 2.14153e-14 0)
(0.324898 2.34704e-16 0)
(0.324898 -2.2722e-14 0)
(0.324898 -4.34308e-14 0)
(0.324898 -5.97803e-14 0)
(0.324898 -7.03465e-14 0)
(0.324898 -7.40444e-14 0)
(0.324898 -7.06139e-14 0)
(0.324898 -6.02911e-14 0)
(0.324898 -4.41471e-14 0)
(0.324898 -2.36735e-14 0)
(0.324898 -8.67272e-16 0)
(0.324898 2.20254e-14 0)
(0.324898 4.28829e-14 0)
(0.324898 5.9603e-14 0)
(0.324898 7.05942e-14 0)
(0.324898 7.4584e-14 0)
(0.324898 7.12131e-14 0)
(0.324898 6.0748e-14 0)
(0.324898 4.42029e-14 0)
(0.324898 2.33225e-14 0)
(0.37489 -1.87342e-15 0)
(0.37489 -2.67028e-14 0)
(0.37489 -4.88083e-14 0)
(0.37489 -6.61441e-14 0)
(0.37489 -7.69534e-14 0)
(0.37489 -8.03413e-14 0)
(0.37489 -7.58502e-14 0)
(0.37489 -6.40292e-14 0)
(0.37489 -4.60139e-14 0)
(0.37489 -2.35291e-14 0)
(0.37489 1.22798e-15 0)
(0.37489 2.60013e-14 0)
(0.37489 4.82449e-14 0)
(0.37489 6.59543e-14 0)
(0.37489 7.71302e-14 0)
(0.37489 8.08132e-14 0)
(0.37489 7.64039e-14 0)
(0.37489 6.44916e-14 0)
(0.37489 4.61154e-14 0)
(0.37489 2.32144e-14 0)
(0.424884 -3.37622e-15 0)
(0.424884 -2.74292e-14 0)
(0.424884 -4.8795e-14 0)
(0.424884 -6.52651e-14 0)
(0.424884 -7.53776e-14 0)
(0.424884 -7.80839e-14 0)
(0.424884 -7.32687e-14 0)
(0.424884 -6.1287e-14 0)
(0.424884 -4.34371e-14 0)
(0.424884 -2.13729e-14 0)
(0.424884 2.79143e-15 0)
(0.424884 2.67571e-14 0)
(0.424884 4.8236e-14 0)
(0.424884 6.50088e-14 0)
(0.424884 7.55379e-14 0)
(0.424884 7.85127e-14 0)
(0.424884 7.37567e-14 0)
(0.424884 6.16693e-14 0)
(0.424884 4.35504e-14 0)
(0.424884 2.11241e-14 0)
(0.474881 -4.23253e-15 0)
(0.474881 -2.51565e-14 0)
(0.474881 -4.34988e-14 0)
(0.474881 -5.76324e-14 0)
(0.474881 -6.60355e-14 0)
(0.474881 -6.80177e-14 0)
(0.474881 -6.33491e-14 0)
(0.474881 -5.26334e-14 0)
(0.474881 -3.67954e-14 0)
(0.474881 -1.74147e-14 0)
(0.474881 3.75642e-15 0)
(0.474881 2.46067e-14 0)
(0.474881 4.30574e-14 0)
(0.474881 5.74228e-14 0)
(0.474881 6.61489e-14 0)
(0.474881 6.84038e-14 0)
(0.474881 6.3774e-14 0)
(0.474881 5.28786e-14 0)
(0.474881 3.67868e-14 0)
(0.474881 1.71472e-14 0)
(0.524881 -4.69623e-15 0)
(0.524881 -2.0709e-14 0)
(0.524881 -3.46398e-14 0)
(0.524881 -4.51011e-14 0)
(0.524881 -5.12533e-14 0)
(0.524881 -5.22824e-14 0)
(0.524881 -4.83769e-14 0)
(0.524881 -3.96956e-14 0)
(0.524881 -2.72882e-14 0)
(0.524881 -1.21367e-14 0)
(0.524881 4.27626e-15 0)
(0.524881 2.03158e-14 0)
(0.524881 3.43679e-14 0)
(0.524881 4.50389e-14 0)
(0.524881 5.14002e-14 0)
(0.524881 5.25811e-14 0)
(0.524881 4.87158e-14 0)
(0.524881 3.9859e-14 0)
(0.524881 2.7168e-14 0)
(0.524881 1.17842e-14 0)
(0.574884 -4.92233e-15 0)
(0.574884 -1.53504e-14 0)
(0.574884 -2.41855e-14 0)
(0.574884 -3.07038e-14 0)
(0.574884 -3.41739e-14 0)
(0.574884 -3.44286e-14 0)
(0.574884 -3.12369e-14 0)
(0.574884 -2.51266e-14 0)
(0.574884 -1.65141e-14 0)
(0.574884 -6.33643e-15 0)
(0.574884 4.59244e-15 0)
(0.574884 1.51299e-14 0)
(0.574884 2.41931e-14 0)
(0.574884 3.07994e-14 0)
(0.574884 3.42907e-14 0)
(0.574884 3.45702e-14 0)
(0.574884 3.14022e-14 0)
(0.574884 2.51657e-14 0)
(0.574884 1.63369e-14 0)
(0.574884 5.97557e-15 0)
(0.62489 -4.97661e-15 0)
(0.62489 -1.01197e-14 0)
(0.62489 -1.4327e-14 0)
(0.62489 -1.7127e-14 0)
(0.62489 -1.82789e-14 0)
(0.62489 -1.76112e-14 0)
(0.62489 -1.53046e-14 0)
(0.62489 -1.14447e-14 0)
(0.62489 -6.54595e-15 0)
(0.62489 -8.56277e-16 0)
(0.62489 4.87978e-15 0)
(0.62489 1.0215e-14 0)
(0.62489 1.45453e-14 0)
(0.62489 1.73039e-14 0)
(0.62489 1.83414e-14 0)
(0.62489 1.76084e-14 0)
(0.62489 1.5193e-14 0)
(0.62489 1.12556e-14 0)
(0.62489 6.2645e-15 0)
(0.62489 6.52023e-16 0)
(0.674898 -4.81477e-15 0)
(0.674898 -5.8318e-15 0)
(0.674898 -6.47636e-15 0)
(0.674898 -6.50609e-15 0)
(0.674898 -5.81767e-15 0)
(0.674898 -4.59924e-15 0)
(0.674898 -2.93191e-15 0)
(0.674898 -1.01024e-15 0)
(0.674898 1.1392e-15 0)
(0.674898 3.18501e-15 0)
(0.674898 4.96836e-15 0)
(0.674898 6.20412e-15 0)
(0.674898 6.78865e-15 0)
(0.674898 6.68644e-15 0)
(0.674898 5.83653e-15 0)
(0.674898 4.42742e-15 0)
(0.674898 2.55251e-15 0)
(0.674898 6.07058e-16 0)
(0.674898 -1.42901e-15 0)
(0.674898 -3.23881e-15 0)
(0.724909 -4.19692e-15 0)
(0.724909 -2.83726e-15 0)
(0.724909 -1.26794e-15 0)
(0.724909 3.55063e-16 0)
(0.724909 1.96808e-15 0)
(0.724909 3.37862e-15 0)
(0.724909 4.4855e-15 0)
(0.724909 5.17756e-15 0)
(0.724909 5.5158e-15 0)
(0.724909 5.34548e-15 0)
(0.724909 4.52023e-15 0)
(0.724909 3.28172e-15 0)
(0.724909 1.64407e-15 0)
(0.724909 -1.61015e-16 0)
(0.724909 -2.04504e-15 0)
(0.724909 -3.76967e-15 0)
(0.724909 -5.01351e-15 0)
(0.724909 -5.67072e-15 0)
(0.724909 -5.71944e-15 0)
(0.724909 -5.27461e-15 0)
(0.774923 -3.22582e-15 0)
(0.774923 -9.19489e-16 0)
(0.774923 1.36101e-15 0)
(0.774923 3.55967e-15 0)
(0.774923 5.30077e-15 0)
(0.774923 6.4917e-15 0)
(0.774923 7.13649e-15 0)
(0.774923 7.18499e-15 0)
(0.774923 6.727e-15 0)
(0.774923 5.46798e-15 0)
(0.774923 3.61892e-15 0)
(0.774923 1.38153e-15 0)
(0.774923 -9.8128e-16 0)
(0.774923 -3.34385e-15 0)
(0.774923 -5.43117e-15 0)
(0.774923 -6.96311e-15 0)
(0.774923 -7.72456e-15 0)
(0.774923 -7.66886e-15 0)
(0.774923 -6.83507e-15 0)
(0.774923 -5.23712e-15 0)
(0.824938 -1.9662e-15 0)
(0.824938 6.28487e-17 0)
(0.824938 2.10686e-15 0)
(0.824938 3.87085e-15 0)
(0.824938 5.21746e-15 0)
(0.824938 5.98275e-15 0)
(0.824938 6.29069e-15 0)
(0.824938 6.18371e-15 0)
(0.824938 5.4626e-15 0)
(0.824938 4.11667e-15 0)
(0.824938 2.35745e-15 0)
(0.824938 3.7568e-16 0)
(0.824938 -1.71966e-15 0)
(0.824938 -3.66662e-15 0)
(0.824938 -5.37806e-15 0)
(0.824938 -6.44606e-15 0)
(0.824938 -6.8337e-15 0)
(0.824938 -6.60448e-15 0)
(0.824938 -5.54981e-15 0)
(0.824938 -3.96642e-15 0)
(0.874954 -8.76781e-16 0)
(0.874954 4.19427e-16 0)
(0.874954 1.65272e-15 0)
(0.874954 2.66342e-15 0)
(0.874954 3.28786e-15 0)
(0.874954 3.67299e-15 0)
(0.874954 3.75557e-15 0)
(0.874954 3.64056e-15 0)
(0.874954 3.1517e-15 0)
(0.874954 2.28011e-15 0)
(0.874954 1.20311e-15 0)
(0.874954 -7.30068e-17 0)
(0.874954 -1.30752e-15 0)
(0.874954 -2.54917e-15 0)
(0.874954 -3.48795e-15 0)
(0.874954 -4.12546e-15 0)
(0.874954 -4.22676e-15 0)
(0.874954 -3.91227e-15 0)
(0.874954 -3.21204e-15 0)
(0.874954 -2.16332e-15 0)
(0.924972 -1.82523e-16 0)
(0.924972 2.68329e-16 0)
(0.924972 8.10884e-16 0)
(0.924972 1.1094e-15 0)
(0.924972 1.2649e-15 0)
(0.924972 1.301e-15 0)
(0.924972 1.28099e-15 0)
(0.924972 1.23475e-15 0)
(0.924972 1.1273e-15 0)
(0.924972 8.59747e-16 0)
(0.924972 4.04711e-16 0)
(0.924972 -9.7099e-17 0)
(0.924972 -6.15284e-16 0)
(0.924972 -1.08167e-15 0)
(0.924972 -1.41954e-15 0)
(0.924972 -1.55497e-15 0)
(0.924972 -1.60217e-15 0)
(0.924972 -1.3516e-15 0)
(0.924972 -1.09065e-15 0)
(0.924972 -6.37395e-16 0)
(0.974991 2.70131e-17 0)
(0.974991 8.08974e-17 0)
(0.974991 1.38496e-16 0)
(0.974991 2.0068e-16 0)
(0.974991 1.61226e-16 0)
(0.974991 1.39994e-16 0)
(0.974991 9.76215e-17 0)
(0.974991 1.06233e-16 0)
(0.974991 1.2724e-16 0)
(0.974991 1.16569e-16 0)
(0.974991 8.11575e-17 0)
(0.974991 -4.66364e-17 0)
(0.974991 -1.02462e-16 0)
(0.974991 -1.96832e-16 0)
(0.974991 -1.83833e-16 0)
(0.974991 -1.94451e-16 0)
(0.974991 -1.88775e-16 0)
(0.974991 -1.41592e-16 0)
(0.974991 -1.09957e-16 0)
(0.974991 4.64563e-18 0)
)
;

boundaryField
{
    movingWall
    {
        type            fixedValue;
        value           uniform (1 0 0);
    }
    fixedWalls
    {
        type            noSlip;
    }
    left
    {
        type            cyclic;
    }
    right
    {
        type            cyclic;
    }
    frontAndBack
    {
        type            empty;
    }
}


// ************************************************************************* //
