/*--------------------------------*- C++ -*----------------------------------*\
  =========                 |
  \\      /  F ield         | OpenFOAM: The Open Source CFD Toolbox
   \\    /   O peration     | Website:  https://openfoam.org
    \\  /    A nd           | Version:  8
     \\/     M anipulation  |
\*---------------------------------------------------------------------------*/
FoamFile
{
    version     2.0;
    format      ascii;
    class       volScalarField;
    location    "0.185";
    object      p;
}
// * * * * * * * * * * * * * * * * * * * * * * * * * * * * * * * * * * * * * //

dimensions      [0 2 -2 0 0 0 0];

internalField   nonuniform List<scalar> 
400
(
-4.52977e-08
-0.00582629
-0.0129596
-0.0184073
-0.0204214
-0.018226
-0.0117614
-0.00147272
0.0118454
0.0271535
0.0432447
0.0588195
0.072572
0.0833
0.0900444
0.0922606
0.0900233
0.0842464
0.0768882
0.0710781
0.00577186
-0.000223724
-0.0058056
-0.00954068
-0.0105943
-0.00842635
-0.00296292
0.00548082
0.0163084
0.0287154
0.0417513
0.0543855
0.0655844
0.0744073
0.0801182
0.0823156
0.0810802
0.0770617
0.0712851
0.0653325
0.0133196
0.00502364
-0.00100107
-0.00442557
-0.00527269
-0.0032617
0.00160584
0.00903165
0.0185061
0.0293527
0.0407681
0.0518715
0.0617698
0.0696377
0.0748093
0.0768823
0.0758487
0.0720966
0.0658205
0.0575557
0.0201183
0.00868222
0.00121709
-0.00267376
-0.00372444
-0.00188532
0.00273302
0.00978752
0.018784
0.029099
0.0399959
0.0506578
0.0602367
0.0679202
0.0730085
0.0750088
0.073776
0.06947
0.0616218
0.0501282
0.0244776
0.00975735
0.000579468
-0.00399345
-0.00530563
-0.00350812
0.00117611
0.00833761
0.0174663
0.0279542
0.0390906
0.0500758
0.0600551
0.0681718
0.0736343
0.0758075
0.0743816
0.0693062
0.0595474
0.0445669
0.0251534
0.00713459
-0.00381189
-0.00906328
-0.010515
-0.00849999
-0.00335438
0.00443386
0.0143194
0.0256862
0.0378218
0.0499117
0.0610568
0.0703123
0.0767448
0.0795287
0.0781534
0.0723517
0.0605629
0.041922
0.0210727
-0.00027483
-0.0129418
-0.0187131
-0.0200304
-0.0174116
-0.0113135
-0.00231267
0.00899925
0.0219863
0.0359206
0.0499557
0.0631236
0.074357
0.0825341
0.086583
0.0857364
0.079466
0.0656444
0.0431035
0.0111291
-0.0136252
-0.0278778
-0.033854
-0.0346004
-0.0308517
-0.0232045
-0.0123346
0.0011173
0.0164977
0.033067
0.0499482
0.0660978
0.0803041
0.091215
0.0974449
0.0978867
0.0916549
0.0759193
0.049146
-0.00597086
-0.0342659
-0.0498667
-0.055543
-0.0550823
-0.0495043
-0.0395809
-0.0260985
-0.00974055
0.00884075
0.0289192
0.0496116
0.069815
0.0881712
0.103064
0.112717
0.115567
0.11021
0.0928549
0.0614367
-0.0318491
-0.0638668
-0.0804065
-0.0849956
-0.082407
-0.0740633
-0.0609639
-0.0440176
-0.0239309
-0.00131525
0.0231675
0.0486824
0.0741159
0.0979912
0.118414
0.133142
0.140005
0.136834
0.118458
0.0819533
-0.0686472
-0.104585
-0.121327
-0.123573
-0.117497
-0.105107
-0.0876973
-0.0663029
-0.0416129
-0.0141307
0.0156305
0.0469773
0.0788783
0.109814
0.137642
0.159602
0.172742
0.173792
0.155534
0.113584
-0.119371
-0.159331
-0.174891
-0.172735
-0.161126
-0.142906
-0.119735
-0.0927518
-0.0625509
-0.0294205
0.00640011
0.0444993
0.084079
0.123724
0.161155
0.193102
0.215681
0.224088
0.208059
0.160638
-0.188589
-0.23221
-0.24391
-0.233922
-0.21367
-0.18713
-0.156347
-0.122475
-0.0858705
-0.0464441
-0.00398678
0.0415651
0.089866
0.13985
0.189336
0.234704
0.271086
0.291672
0.281747
0.229775
-0.28393
-0.329269
-0.331801
-0.308253
-0.274684
-0.236416
-0.19574
-0.153585
-0.109813
-0.0637178
-0.0144109
0.0388888
0.096577
0.158296
0.22239
0.2853
0.341406
0.38158
0.384914
0.331827
-0.419273
-0.459635
-0.442321
-0.395767
-0.342107
-0.287719
-0.234594
-0.182907
-0.131585
-0.0789596
-0.0231889
0.0374987
0.104574
0.178855
0.259874
0.344979
0.428621
0.499702
0.529671
0.48538
-0.62049
-0.636712
-0.578652
-0.494173
-0.411223
-0.335642
-0.267763
-0.205959
-0.147515
-0.0893606
-0.0284036
0.0383692
0.113825
0.200486
0.299985
0.412031
0.533032
0.651774
0.732765
0.722381
-0.93589
-0.878489
-0.741722
-0.597934
-0.474382
-0.372649
-0.288857
-0.217748
-0.153936
-0.0924451
-0.0286979
0.041714
0.123279
0.22073
0.338933
0.482158
0.651996
0.841338
1.01526
1.09749
-1.4764
-1.20661
-0.92049
-0.69138
-0.5173
-0.387539
-0.290055
-0.213328
-0.148111
-0.0872003
-0.024561
0.0454739
0.128952
0.233082
0.36711
0.542681
0.771292
1.05931
1.40328
1.73013
-2.53963
-1.63053
-1.04443
-0.710957
-0.495752
-0.352095
-0.25453
-0.183579
-0.126161
-0.0735829
-0.0192541
0.0428029
0.119228
0.218796
0.354822
0.54799
0.826395
1.23658
1.91167
2.92418
-4.36665
-2.04462
-0.973539
-0.563185
-0.357854
-0.240155
-0.170126
-0.123785
-0.0874773
-0.0535006
-0.01664
0.0276783
0.0846264
0.161748
0.272427
0.442111
0.718226
1.22571
2.41103
4.84853
)
;

boundaryField
{
    movingWall
    {
        type            zeroGradient;
    }
    fixedWalls
    {
        type            zeroGradient;
    }
    frontAndBack
    {
        type            empty;
    }
}


// ************************************************************************* //
