/*--------------------------------*- C++ -*----------------------------------*\
  =========                 |
  \\      /  F ield         | OpenFOAM: The Open Source CFD Toolbox
   \\    /   O peration     | Website:  https://openfoam.org
    \\  /    A nd           | Version:  8
     \\/     M anipulation  |
\*---------------------------------------------------------------------------*/
FoamFile
{
    version     2.0;
    format      ascii;
    class       surfaceScalarField;
    location    "0.185";
    object      phi;
}
// * * * * * * * * * * * * * * * * * * * * * * * * * * * * * * * * * * * * * //

dimensions      [0 3 -1 0 0 0 0];

internalField   nonuniform List<scalar> 
760
(
1.42375e-08
-1.4237e-08
-2.22002e-08
3.64378e-08
-1.14219e-07
9.20186e-08
-2.45379e-07
1.3116e-07
-3.95907e-07
1.50528e-07
-5.47098e-07
1.5119e-07
-6.82852e-07
1.35755e-07
-7.90268e-07
1.07417e-07
-8.59777e-07
6.95086e-08
-8.85199e-07
2.54222e-08
-8.63892e-07
-2.13078e-08
-7.96998e-07
-6.68934e-08
-6.89753e-07
-1.07245e-07
-5.51714e-07
-1.38039e-07
-3.96765e-07
-1.54949e-07
-2.42647e-07
-1.54117e-07
-1.09695e-07
-1.32953e-07
-1.84178e-08
-9.12767e-08
1.56772e-08
-3.4095e-08
1.56769e-08
-3.41885e-08
1.99513e-08
-1.80268e-07
1.82517e-07
-4.33746e-07
3.45497e-07
-7.64012e-07
4.61426e-07
-1.13159e-06
5.18106e-07
-1.49642e-06
5.16023e-07
-1.82234e-06
4.6167e-07
-2.0794e-06
3.64476e-07
-2.24505e-06
2.35161e-07
-2.30479e-06
8.51612e-08
-2.25269e-06
-7.34099e-08
-2.09193e-06
-2.27648e-07
-1.83529e-06
-3.63885e-07
-1.50526e-06
-4.68074e-07
-1.1335e-06
-5.26707e-07
-7.59138e-07
-5.2848e-07
-4.2519e-07
-4.66901e-07
-1.72609e-07
-3.43858e-07
-3.07887e-08
-1.75915e-07
-1.51118e-08
-9.21656e-08
1.12117e-07
-3.56776e-07
4.47126e-07
-7.64105e-07
7.52825e-07
-1.26775e-06
9.6507e-07
-1.81365e-06
1.06401e-06
-2.3477e-06
1.05007e-06
-2.82082e-06
9.34795e-07
-3.19213e-06
7.35781e-07
-3.43067e-06
4.73704e-07
-3.51654e-06
1.71029e-07
-3.44166e-06
-1.48292e-07
-3.21049e-06
-4.58818e-07
-2.84056e-06
-7.33817e-07
-2.36253e-06
-9.46103e-07
-1.81934e-06
-1.06989e-06
-1.26381e-06
-1.08401e-06
-7.5412e-07
-9.76595e-07
-3.46783e-07
-7.51195e-07
-8.72869e-08
-4.35411e-07
-1.02399e-07
-1.45116e-07
2.57233e-07
-5.25143e-07
8.27153e-07
-1.081e-06
1.30868e-06
-1.74651e-06
1.63058e-06
-2.45295e-06
1.77045e-06
-3.13462e-06
1.73175e-06
-3.73322e-06
1.53339e-06
-4.20059e-06
1.20315e-06
-4.50045e-06
7.73567e-07
-4.60942e-06
2.79999e-07
-4.51782e-06
-2.39889e-07
-4.23048e-06
-7.46163e-07
-3.76738e-06
-1.19692e-06
-3.16398e-06
-1.5495e-06
-2.47059e-06
-1.76328e-06
-1.75016e-06
-1.80444e-06
-1.07395e-06
-1.65281e-06
-5.14863e-07
-1.31028e-06
-1.39236e-07
-8.11038e-07
-2.41635e-07
-1.93494e-07
4.50726e-07
-6.84619e-07
1.31828e-06
-1.38488e-06
2.00895e-06
-2.20609e-06
2.45179e-06
-3.06389e-06
2.62824e-06
-3.88179e-06
2.54965e-06
-4.59417e-06
2.24577e-06
-5.14799e-06
1.75697e-06
-5.50369e-06
1.12927e-06
-5.63573e-06
4.12034e-07
-5.53304e-06
-3.42578e-07
-5.19985e-06
-1.07935e-06
-4.65665e-06
-1.74012e-06
-3.94108e-06
-2.26506e-06
-3.10824e-06
-2.59613e-06
-2.22945e-06
-2.68323e-06
-1.38898e-06
-2.49328e-06
-6.78167e-07
-2.02109e-06
-1.8767e-07
-1.30154e-06
-4.29304e-07
-2.39818e-07
6.90544e-07
-8.39951e-07
1.91841e-06
-1.68252e-06
2.85152e-06
-2.65588e-06
3.42514e-06
-3.65923e-06
3.6316e-06
-4.60576e-06
3.49618e-06
-5.42401e-06
3.06401e-06
-6.05797e-06
2.39093e-06
-6.4666e-06
1.53791e-06
-6.62325e-06
5.68691e-07
-6.5156e-06
-4.50232e-07
-6.14627e-06
-1.44868e-06
-5.53429e-06
-2.35209e-06
-4.71703e-06
-3.08232e-06
-3.75197e-06
-3.56119e-06
-2.7174e-06
-3.7178e-06
-1.71085e-06
-3.49983e-06
-8.44314e-07
-2.88763e-06
-2.36075e-07
-1.90977e-06
-6.6538e-07
-2.86631e-07
9.77176e-07
-9.9672e-07
2.6285e-06
-1.98138e-06
3.83618e-06
-3.10387e-06
4.54763e-06
-4.2465e-06
4.77423e-06
-5.313e-06
4.56269e-06
-6.228e-06
3.979e-06
-6.93482e-06
3.09775e-06
-7.393e-06
1.99608e-06
-7.5761e-06
7.51789e-07
-7.4707e-06
-5.55627e-07
-7.07682e-06
-1.84257e-06
-6.40984e-06
-3.01908e-06
-5.50386e-06
-3.9883e-06
-4.41569e-06
-4.64936e-06
-3.22838e-06
-4.90511e-06
-2.05232e-06
-4.67589e-06
-1.02221e-06
-3.91774e-06
-2.88183e-07
-2.6438e-06
-9.53563e-07
-3.3624e-07
1.31342e-06
-1.16008e-06
3.45234e-06
-2.28746e-06
4.96356e-06
-3.55414e-06
5.81431e-06
-4.82547e-06
6.04555e-06
-5.99763e-06
5.73485e-06
-6.99435e-06
4.97573e-06
-7.76165e-06
3.86506e-06
-8.2625e-06
2.49693e-06
-8.4726e-06
9.61884e-07
-8.37799e-06
-6.50231e-07
-7.97505e-06
-2.24551e-06
-7.27293e-06
-3.7212e-06
-6.29855e-06
-4.96268e-06
-5.10356e-06
-5.84435e-06
-3.77171e-06
-6.23696e-06
-2.42436e-06
-6.02324e-06
-1.22048e-06
-5.12162e-06
-3.47626e-07
-3.51665e-06
-1.30119e-06
-3.90901e-07
1.70432e-06
-1.3347e-06
4.39614e-06
-2.60463e-06
6.23348e-06
-4.00541e-06
7.21509e-06
-5.38608e-06
7.42622e-06
-6.63883e-06
6.9876e-06
-7.69135e-06
6.02825e-06
-8.49726e-06
4.67096e-06
-9.02713e-06
3.0268e-06
-9.26161e-06
1.19636e-06
-9.18735e-06
-7.24482e-07
-8.79626e-06
-2.6366e-06
-8.08826e-06
-4.4292e-06
-7.07807e-06
-5.97287e-06
-5.80556e-06
-7.11686e-06
-4.34848e-06
-7.69404e-06
-2.83444e-06
-7.53728e-06
-1.4469e-06
-6.50917e-06
-4.1804e-07
-4.54551e-06
-1.71923e-06
-4.53438e-07
2.15776e-06
-1.52563e-06
5.46834e-06
-2.93478e-06
7.64263e-06
-4.44996e-06
8.73026e-06
-5.9061e-06
8.88237e-06
-7.19752e-06
8.27902e-06
-8.26331e-06
7.09403e-06
-9.07166e-06
5.47932e-06
-9.60643e-06
3.56157e-06
-9.85712e-06
1.44706e-06
-9.81295e-06
-7.6866e-07
-9.46091e-06
-2.98864e-06
-8.78867e-06
-5.10144e-06
-7.79261e-06
-6.96893e-06
-6.49188e-06
-8.41759e-06
-4.94771e-06
-9.2382e-06
-3.28494e-06
-9.20005e-06
-1.70858e-06
-8.08552e-06
-5.03557e-07
-5.75054e-06
-2.22279e-06
-5.28364e-07
2.68612e-06
-1.73975e-06
6.67972e-06
-3.27813e-06
9.18102e-06
-4.87186e-06
1.0324e-05
-6.34731e-06
1.03578e-05
-7.61117e-06
9.54289e-06
-8.62474e-06
8.1076e-06
-9.38009e-06
6.23467e-06
-9.88139e-06
4.06287e-06
-1.01319e-05
1.69758e-06
-1.01261e-05
-7.74445e-07
-9.84663e-06
-3.26813e-06
-9.26623e-06
-5.68185e-06
-8.35651e-06
-7.87865e-06
-7.10481e-06
-9.66929e-06
-5.54076e-06
-1.08022e-05
-3.77073e-06
-1.09701e-05
-2.01217e-06
-9.84408e-06
-6.09689e-07
-7.15303e-06
-2.83247e-06
-6.23735e-07
3.30985e-06
-1.9876e-06
8.04359e-06
-3.63231e-06
1.08257e-05
-5.24253e-06
1.19342e-05
-6.64836e-06
1.17637e-05
-7.78544e-06
1.068e-05
-8.65211e-06
8.97427e-06
-9.27549e-06
6.85805e-06
-9.68777e-06
4.47515e-06
-9.91104e-06
1.92086e-06
-9.9484e-06
-7.37084e-07
-9.77965e-06
-3.43689e-06
-9.36181e-06
-6.09969e-06
-8.63637e-06
-8.60409e-06
-7.54695e-06
-1.07587e-05
-6.07197e-06
-1.22772e-05
-4.2745e-06
-1.27676e-05
-2.36376e-06
-1.17548e-05
-7.44808e-07
-8.77198e-06
-3.57728e-06
-7.54179e-07
4.06403e-06
-2.28467e-06
9.57408e-06
-3.98761e-06
1.25287e-05
-5.51e-06
1.34566e-05
-6.71082e-06
1.29645e-05
-7.58004e-06
1.15492e-05
-8.17176e-06
9.56599e-06
-8.55949e-06
7.24578e-06
-8.80968e-06
4.72534e-06
-8.96702e-06
2.07819e-06
-9.04626e-06
-6.57838e-07
-9.0275e-06
-3.45565e-06
-8.85413e-06
-6.27305e-06
-8.4361e-06
-9.02212e-06
-7.6639e-06
-1.15309e-05
-6.4427e-06
-1.34984e-05
-4.75668e-06
-1.44536e-05
-2.76696e-06
-1.37445e-05
-9.22494e-07
-1.06164e-05
-4.49978e-06
-9.45329e-07
5.00936e-06
-2.64888e-06
1.12776e-05
-4.31172e-06
1.41915e-05
-5.5744e-06
1.47193e-05
-6.37216e-06
1.37622e-05
-6.7851e-06
1.19621e-05
-6.9426e-06
9.72349e-06
-6.97204e-06
7.27523e-06
-6.97521e-06
4.7285e-06
-7.01896e-06
2.12193e-06
-7.13098e-06
-5.45812e-07
-7.29597e-06
-3.29067e-06
-7.45059e-06
-6.11842e-06
-7.47952e-06
-8.99319e-06
-7.21922e-06
-1.17912e-05
-6.48367e-06
-1.4234e-05
-5.13401e-06
-1.58032e-05
-3.21527e-06
-1.56633e-05
-1.16447e-06
-1.26672e-05
-5.66425e-06
-1.23744e-06
6.2468e-06
-3.0837e-06
1.31239e-05
-4.50847e-06
1.56163e-05
-5.23565e-06
1.54465e-05
-5.3568e-06
1.38834e-05
-5.0838e-06
1.16891e-05
-4.63319e-06
9.27289e-06
-4.1818e-06
6.82384e-06
-3.85705e-06
4.40375e-06
-3.73976e-06
2.00464e-06
-3.8678e-06
-4.17773e-07
-4.23513e-06
-2.92333e-06
-4.7843e-06
-5.56925e-06
-5.39294e-06
-8.38455e-06
-5.85997e-06
-1.13242e-05
-5.90764e-06
-1.41863e-05
-5.23349e-06
-1.64774e-05
-3.66661e-06
-1.72302e-05
-1.50018e-06
-1.48337e-05
-7.16442e-06
-1.67392e-06
7.92072e-06
-3.51373e-06
1.49637e-05
-4.31601e-06
1.64186e-05
-4.08998e-06
1.52204e-05
-3.19456e-06
1.2988e-05
-2.00065e-06
1.04952e-05
-7.97402e-07
8.06964e-06
2.16806e-07
5.80963e-06
9.15527e-07
3.70503e-06
1.22284e-06
1.69733e-06
1.09935e-06
-2.94286e-07
5.38513e-07
-2.36249e-06
-4.25211e-07
-4.60553e-06
-1.6945e-06
-7.11526e-06
-3.07394e-06
-9.94475e-06
-4.23193e-06
-1.30283e-05
-4.69635e-06
-1.6013e-05
-3.96754e-06
-1.7959e-05
-1.94503e-06
-1.68562e-05
-9.10945e-06
-2.23077e-06
1.01515e-05
-3.59057e-06
1.63235e-05
-3.07835e-06
1.59063e-05
-1.34479e-06
1.34869e-05
8.95742e-07
1.07474e-05
3.1533e-06
8.23764e-06
5.13611e-06
6.08683e-06
6.68642e-06
4.25932e-06
7.72338e-06
2.66807e-06
8.20403e-06
1.21669e-06
8.1014e-06
-1.91659e-07
7.3967e-06
-1.65778e-06
6.08476e-06
-3.2936e-06
4.1974e-06
-5.22791e-06
1.85274e-06
-7.60008e-06
-6.62746e-07
-1.05128e-05
-2.79283e-06
-1.38829e-05
-3.66242e-06
-1.70894e-05
-2.41164e-06
-1.8107e-05
-1.15211e-05
-2.57385e-06
1.27253e-05
-2.18362e-06
1.59333e-05
7.17698e-07
1.3005e-05
4.46892e-06
9.73564e-06
8.13234e-06
7.08401e-06
1.13003e-05
5.06968e-06
1.38275e-05
3.5596e-06
1.56863e-05
2.40056e-06
1.68897e-05
1.46465e-06
1.74529e-05
6.53545e-07
1.73744e-05
-1.13167e-07
1.66286e-05
-9.12035e-07
1.51655e-05
-1.83047e-06
1.29221e-05
-2.98449e-06
9.86062e-06
-4.53862e-06
6.06114e-06
-6.71336e-06
1.91182e-06
-9.73354e-06
-1.55989e-06
-1.36177e-05
-2.45842e-06
-1.72084e-05
-1.39795e-05
-7.85011e-07
1.35104e-05
4.08074e-06
1.10675e-05
1.02974e-05
6.78839e-06
1.57933e-05
4.23973e-06
2.01575e-05
2.71982e-06
2.34573e-05
1.76986e-06
2.58598e-05
1.15706e-06
2.75204e-05
7.39989e-07
2.85528e-05
4.32253e-07
2.90251e-05
1.81208e-07
2.89609e-05
-4.8968e-08
2.83376e-05
-2.88663e-07
2.70808e-05
-5.73686e-07
2.50542e-05
-9.5789e-07
2.2051e-05
-1.53545e-06
1.7815e-05
-2.47735e-06
1.21721e-05
-4.09062e-06
5.47757e-06
-6.92319e-06
-1.29209e-07
-1.16017e-05
-1.41087e-05
1.35104e-05
2.45779e-05
3.13663e-05
3.5606e-05
3.83258e-05
4.00957e-05
4.12527e-05
4.19927e-05
4.2425e-05
4.26062e-05
4.25572e-05
4.22685e-05
4.16949e-05
4.0737e-05
3.92015e-05
3.67242e-05
3.26336e-05
2.57104e-05
1.41087e-05
)
;

boundaryField
{
    movingWall
    {
        type            calculated;
        value           uniform 0;
    }
    fixedWalls
    {
        type            calculated;
        value           uniform 0;
    }
    frontAndBack
    {
        type            empty;
        value           nonuniform List<scalar> 0();
    }
}


// ************************************************************************* //
