/*--------------------------------*- C++ -*----------------------------------*\
  =========                 |
  \\      /  F ield         | OpenFOAM: The Open Source CFD Toolbox
   \\    /   O peration     | Website:  https://openfoam.org
    \\  /    A nd           | Version:  8
     \\/     M anipulation  |
\*---------------------------------------------------------------------------*/
FoamFile
{
    version     2.0;
    format      ascii;
    class       volVectorField;
    location    "84";
    object      U;
}
// * * * * * * * * * * * * * * * * * * * * * * * * * * * * * * * * * * * * * //

dimensions      [0 1 -1 0 0 0 0];

internalField   nonuniform List<vector> 
2844
(
(0.981856 -0.00570694 0.000237699)
(1.02848 -0.000956487 -0.000116091)
(1.02233 -0.0128888 -0.000101115)
(1.06708 -0.0092208 9.95461e-05)
(1.05391 -0.00480085 -0.000355778)
(1.09674 -0.0177803 0.000737493)
(1.0818 -0.00427321 -0.000475305)
(1.05315 -0.00739812 0.000511354)
(1.05371 -0.0105496 4.73573e-05)
(1.02927 -0.00104624 -0.000523411)
(1.01198 -0.00409382 0.0010783)
(1.00909 0.015843 -0.000543312)
(0.930138 0.0110217 -0.000244115)
(0.939043 -0.0106669 0.00270568)
(0.953652 -0.0322841 0.000883239)
(0.932895 -0.0508231 0.0022591)
(0.958964 -0.0371451 0.00374701)
(0.960931 -0.0433148 0.00274449)
(0.956773 -0.030777 0.00206644)
(0.959744 -0.0101168 0.00100456)
(0.979561 -0.00463231 0.00023478)
(1.03778 -0.0333151 9.7698e-05)
(1.01505 -0.0163865 -0.000126223)
(1.07655 -0.0150056 -0.000200117)
(1.06419 -0.00735684 3.61489e-05)
(1.10613 -0.0085847 0.000614638)
(1.09974 0.0447729 -0.000471151)
(1.05165 0.0290508 0.0013271)
(1.07023 0.0205505 -0.000221357)
(1.03704 0.0455029 2.5707e-05)
(1.03219 0.0135764 0.00283691)
(1.03975 0.0526299 -0.000708962)
(0.906277 0.0426558 -0.00135343)
(0.895193 -0.0344589 0.00720997)
(0.92204 0.0425939 0.00185661)
(0.920397 0.0227044 0.00693423)
(0.951461 -0.013028 0.0138736)
(0.960962 0.0349825 0.00987621)
(0.989642 0.0160262 0.00847097)
(0.984755 -0.00182024 0.0035375)
(0.978649 -0.0204441 0.000482738)
(1.02768 -0.0412261 -0.00060566)
(1.0465 -0.0450855 -0.00234547)
(1.10239 -0.0541738 0.00351877)
(1.13787 -0.0231336 0.000733717)
(1.1453 -0.0630414 0.00318558)
(1.13181 0.0468015 -0.000101623)
(1.04201 -0.000322522 -0.000369904)
(1.07284 -0.00530277 0.00722869)
(1.09441 0.0388873 -0.00688754)
(0.979376 -0.0367891 0.00402856)
(1.02834 0.130314 0.000416928)
(0.993826 0.138398 -0.00167104)
(0.875319 -0.0792665 0.0109046)
(0.91601 -0.0621478 0.015088)
(0.808134 -0.121425 0.0437807)
(0.793241 -0.141736 0.042588)
(0.829684 -0.11552 0.0336755)
(0.879152 -0.102129 0.0324373)
(0.959511 -0.0259115 0.0152671)
(0.98731 -0.0137184 0.00198688)
(1.03908 -0.0757999 0.000633991)
(1.01477 -0.0581634 -0.0144126)
(1.13525 -0.0979903 -0.00105977)
(1.22471 -0.012032 0.0157438)
(1.16325 -0.0256143 0.00515774)
(1.15558 0.130608 0.00040948)
(1.11088 0.0968171 0.00547207)
(1.07202 -0.0844209 0.00734301)
(1.20481 0.171537 -0.00180705)
(1.00687 0.0664562 0.0219656)
(1.1277 0.0328764 -0.00823925)
(1.06337 0.150432 -0.0066379)
(0.761056 -0.0458344 0.0212726)
(0.642017 0.0175634 0.0479743)
(0.436186 -0.190184 0.0487764)
(0.429975 -0.356975 0.0215067)
(0.487051 -0.282992 0.00614637)
(0.670861 -0.35804 0.0135422)
(0.915271 -0.17861 0.00843899)
(0.995914 -0.0536333 0.00340142)
(1.06296 -0.0969301 0.00524291)
(1.09456 -0.014057 -0.0217333)
(1.21501 -0.236085 -0.0438749)
(1.33685 -0.183291 -0.0123982)
(1.30151 -0.0464165 0.0460272)
(1.24014 0.110513 0.0274863)
(1.1252 0.00759407 -0.0154156)
(1.11685 -0.156008 -0.0160178)
(1.2705 0.132789 0.00795686)
(1.08402 -0.141558 -0.0102529)
(1.13163 0.164642 0.003892)
(1.08977 0.495465 0.0420219)
(0.815243 0.0569533 0.0363538)
(0.422863 -0.174146 0.0187376)
(0.332654 -0.382368 -0.0351223)
(0.394552 -0.440725 -0.0453031)
(0.39834 -0.462938 -0.0390557)
(0.464674 -0.658175 -0.0229337)
(0.778835 -0.306746 -0.00149588)
(0.956239 -0.0796354 -0.00595058)
(1.11243 -0.151397 0.0271584)
(1.155 -0.0253092 0.0011795)
(1.1627 0.0465024 -0.0808311)
(1.58937 0.0776999 -0.0842678)
(1.48763 -0.259404 0.00551788)
(1.4832 0.0521339 0.0260645)
(1.12814 0.332856 0.0497422)
(1.05885 -0.16925 -0.0448866)
(1.33681 0.191434 -0.0712352)
(1.3264 0.24961 -0.0544292)
(1.21267 -0.0419647 -0.020446)
(1.39108 0.0742747 -0.0172409)
(1.65464 0.182695 -0.00472004)
(1.18233 0.232982 -0.00047873)
(0.776298 -0.0500222 -0.0260787)
(0.633463 -0.334157 -0.0328314)
(0.53389 -0.232705 -0.0459139)
(0.611189 -0.646215 -0.0457784)
(0.881631 -0.486768 -0.00593607)
(0.892037 -0.121496 0.0202521)
(1.27118 -0.373726 0.00979013)
(1.30838 -0.157282 -0.0225135)
(1.4796 0.140969 -0.022783)
(1.4897 0.02972 0.0361752)
(1.62069 -0.10961 -0.0574557)
(1.5819 0.104137 -0.00178935)
(1.25495 0.0570925 0.0441303)
(1.0095 -0.264721 -0.0319733)
(1.33819 0.321864 -0.0738955)
(1.91169 0.26473 -0.0727974)
(1.74455 0.0861699 -0.018268)
(1.25285 0.282662 -0.00971549)
(1.33521 0.389956 0.00405204)
(0.988001 0.294465 -0.00824197)
(0.720314 -0.126998 -0.0251054)
(0.648964 -0.289037 -0.0220433)
(0.579641 -0.224063 -0.0422414)
(0.776673 -0.654077 -0.0574024)
(0.877568 -0.550271 -0.0222226)
(0.989058 -0.36905 -0.0120669)
(0.959081 -0.363386 0.00752611)
(1.81787 -0.342005 0.0501914)
(1.99061 -0.516607 0.0366325)
(2.15822 -0.193006 -0.00209245)
(1.51164 0.453294 0.0102561)
(1.30242 0.434072 -0.00905885)
(1.19315 0.430112 -0.1513)
(1.25839 -0.189847 -0.0353972)
(1.5266 0.0474666 0.101675)
(1.34514 0.270838 0.03056)
(1.51705 0.447655 -0.0738784)
(1.80837 0.585626 -0.0536814)
(1.77413 0.460643 0.0112504)
(1.46678 0.524507 3.96435e-05)
(1.48172 0.384231 -0.00254243)
(1.19785 0.0412568 0.0396359)
(0.925318 0.0465216 0.0179631)
(0.864821 -0.366939 -0.0303785)
(0.988097 -0.418371 -0.0275807)
(1.47358 -0.121607 -0.00581661)
(1.0022 -0.91379 0.0577466)
(0.960965 -1.50013 -0.00538298)
(0.233177 0.0919908 0.0268537)
(0.595106 1.00983 -0.00329298)
(0.0513134 -0.354213 0.0655755)
(0.480315 -0.367538 0.087217)
(0.367815 -0.318846 0.0778809)
(1.04171 -0.000531467 0.0269953)
(1.4009 0.51401 -0.0245083)
(1.23709 0.555066 -0.0428314)
(1.47904 0.430573 -0.0129474)
(1.36322 0.233476 0.0424322)
(1.00877 -0.0467982 0.0366766)
(0.833724 -0.0394494 0.00452621)
(0.975113 -0.451903 -0.00185123)
(1.0525 -0.440832 0.00093631)
(1.11762 -0.0882537 -0.0977405)
(1.31038 -0.858004 0.125342)
(-0.466362 -0.180537 -0.377419)
(0.135049 0.231968 -0.0143848)
(-0.153603 0.166916 0.0594302)
(-0.0968791 -0.789239 -0.0544182)
(-0.00488681 -0.812092 -0.037409)
(0.188061 -0.764166 -0.00395746)
(0.458078 -0.568225 0.035425)
(0.921541 0.34185 -0.0467443)
(1.47967 0.369405 -0.0473931)
(1.61899 0.572342 0.0335016)
(1.09081 0.446613 0.0213098)
(0.927344 -0.00559532 -0.0352793)
(0.935017 -0.0492892 -0.0179263)
(1.09818 -0.527411 -0.00967248)
(1.18735 -0.455319 -0.000543846)
(1.30568 0.17928 -0.14682)
(0.617565 0.156781 0.0971079)
(-0.020324 0.234234 -0.0108826)
(0.366848 0.568931 0.00994705)
(0.604995 -0.218188 -0.0257385)
(0.512334 -0.67902 -0.113878)
(1.12716 -0.838417 -0.101584)
(1.01928 -1.13677 -0.0297141)
(0.967293 -0.161865 0.0480643)
(1.22582 0.309875 0.0769037)
(1.10956 0.559796 0.0482332)
(0.881186 0.419825 -0.0083989)
(0.976765 0.0683115 -0.0539357)
(0.958378 -0.0577973 -0.0448587)
(1.2082 -0.543261 -0.0141542)
(1.29051 -0.548887 -0.0136067)
(1.33632 0.111773 0.01488)
(0.582641 0.522802 -0.0342127)
(0.614988 0.757374 -0.0528134)
(0.0760423 0.34004 -0.0172634)
(0.843504 -0.360391 0.00277622)
(1.31315 -0.814807 0.0401414)
(1.03039 -0.501455 -0.0402046)
(1.26735 -0.340171 -0.0796226)
(1.54284 -0.458454 -0.0787265)
(1.3901 -0.399137 -0.0459251)
(1.10327 -0.30139 0.0338358)
(0.671164 0.134915 0.0278938)
(0.669566 0.13979 -0.0133317)
(1.12576 0.201798 -0.016691)
(1.41563 0.254748 -0.00840467)
(1.47887 -0.513316 0.0222794)
(1.20393 -0.40614 0.0184757)
(1.05928 0.185154 0.0445355)
(0.595084 0.50434 -0.0337469)
(1.01869 0.968727 -0.0253546)
(0.0591158 -0.0448563 0.022004)
(1.54657 -0.0455768 0.00934688)
(1.59303 -0.194303 -0.016398)
(1.831 -0.707659 -0.105043)
(1.65929 -0.588219 0.0205928)
(1.1134 -0.415871 0.0544334)
(1.05762 -0.43409 0.00622)
(1.65679 0.0336146 -0.051533)
(1.56809 0.199792 0.000806363)
(0.945129 0.298251 0.0323522)
(0.993738 0.0743048 -0.0274739)
(1.39681 -0.2674 -0.00482751)
(1.42961 -0.104458 -0.000269906)
(1.51292 -0.457619 -0.0186786)
(1.31451 -0.505683 0.00387582)
(1.04144 0.0157045 0.0294063)
(0.741674 0.492689 -0.00357242)
(1.57415 0.914664 0.00238225)
(1.53481 0.127986 0.0225321)
(1.82518 -0.397001 -0.0523732)
(1.53346 -0.210471 0.0342843)
(1.48853 -0.409073 0.0229662)
(1.66502 -0.452272 0.0335241)
(1.35841 -0.173056 0.0080808)
(0.926287 -0.2296 0.00904878)
(0.869092 -0.351966 0.00147421)
(0.719485 -0.43224 -0.0222336)
(0.930571 -0.103489 0.0598631)
(0.784784 0.0703616 0.0770742)
(0.9028 0.251131 0.0303928)
(1.26372 0.0913432 0.0126339)
(1.32107 0.0758183 0.0313076)
(1.20856 0.203835 -0.0137008)
(1.48905 -0.277908 -0.0202162)
(1.19236 -0.256957 0.00243152)
(0.99669 0.0511597 0.00396227)
(0.945884 0.156565 0.0171952)
(1.23441 0.425251 0.0065641)
(1.58449 0.216077 -0.0202548)
(1.59214 0.0176775 0.0243592)
(1.24855 -0.318371 0.0303628)
(1.28804 -0.372703 0.00455688)
(1.10991 -0.354635 -0.0178548)
(1.22866 -0.332561 0.00713364)
(1.26735 -0.216572 0.00739536)
(1.12873 -0.347063 0.0244192)
(0.727211 -0.356277 -0.0241509)
(0.697065 -0.128203 -0.0260978)
(0.982637 -0.133144 -0.00846062)
(1.13291 -0.0285412 -0.00134524)
(1.16077 -0.180952 0.00174912)
(1.00277 -0.281134 -0.00763533)
(1.25851 -0.0251883 0.00566916)
(1.3454 -0.227405 0.00674565)
(1.00702 -0.231568 -0.00161749)
(0.995341 0.0170381 -0.00282413)
(1.04242 0.105044 0.00647247)
(1.16521 0.303406 0.00353758)
(1.30338 0.0462496 0.0209592)
(1.25822 0.00844464 0.0276484)
(1.18583 -0.104072 -0.0337704)
(1.17842 -0.201017 -0.0325251)
(1.23288 -0.123301 -0.00910459)
(1.10462 -0.2222 -0.0135489)
(1.0437 -0.110674 -0.010917)
(0.96523 -0.116354 0.00977557)
(0.717802 -0.0775603 0.0058174)
(0.785167 -0.0702461 -0.0243716)
(0.936092 -0.0997485 -0.0284401)
(1.08686 0.158656 -0.0320652)
(1.25394 0.202943 -0.0154959)
(1.07965 0.0713817 -0.00614754)
(0.918672 -0.184906 0.0150911)
(0.89199 -0.223021 0.00277879)
(0.816173 0.0244939 -0.0173852)
(1.00773 0.041445 -0.00199814)
(1.00161 0.0202334 -0.00155058)
(1.116 0.115793 0.0132738)
(1.11496 0.010571 0.00150112)
(1.12226 -0.0199403 -0.0106888)
(1.23276 0.0164625 -0.00326513)
(1.07425 -0.125854 -0.00427397)
(1.12659 -0.169719 -0.00563448)
(1.10331 -0.114242 0.00206409)
(0.953487 -0.0437468 0.00362577)
(0.994739 -0.174056 -0.00458096)
(0.891798 -0.174302 0.00380172)
(0.879276 0.013622 -0.013546)
(0.900511 -0.0385978 -0.0162938)
(0.936582 0.0213334 -0.0131143)
(1.14293 -0.0440317 0.00197028)
(1.09828 0.0944861 0.000653707)
(1.14548 0.0123997 -0.01098)
(1.01121 -0.191185 0.0118572)
(0.831952 0.0127172 0.0122906)
(1.00647 0.0201052 -0.000793013)
(1.02789 0.0298892 0.0010168)
(1.0413 0.0482615 0.0025785)
(1.10502 0.0229498 -0.00142448)
(1.0758 0.0521293 -0.000568704)
(1.12144 0.00288204 -0.00342054)
(1.12503 -0.0367538 -0.00200674)
(1.05439 -0.0673436 -0.00096185)
(1.0128 -0.0782281 -0.00248436)
(0.992257 -0.0376412 0.00278986)
(0.970856 -0.0366264 -0.000563997)
(0.868401 -0.0205519 0.000493959)
(0.875996 0.0586641 -0.00146857)
(0.925704 0.0582507 -0.00346462)
(0.933583 0.108784 0.000717285)
(0.974181 0.0350572 -0.000504653)
(0.913789 0.0713144 0.00353524)
(1.06079 0.00668477 -0.00119733)
(0.989632 -0.0805518 -0.00029117)
(0.916122 0.0706107 0.00738176)
(1.00154 0.015401 0.000391841)
(1.00906 0.00664323 -0.000278872)
(1.03845 0.0136343 -0.0002938)
(1.04085 0.00759613 0.000945541)
(1.0575 0.0163232 -0.000919915)
(1.10322 0.00547435 -9.88141e-05)
(1.06371 -0.0480316 -0.000509233)
(1.05369 -0.0555452 -0.000319938)
(0.991475 -0.0572325 0.000308161)
(0.959091 -0.0355247 -0.000171046)
(0.942322 -0.074689 0.000103033)
(0.882046 -0.0828258 0.000339747)
(0.885516 -0.0159891 0.000819636)
(0.895098 -0.0290489 -0.000871296)
(0.917208 -0.00182863 0.000597324)
(0.980022 -0.0245739 -0.00118744)
(0.927649 0.00565394 0.00340856)
(0.999731 -0.0390847 0.000357819)
(0.887756 -0.0913227 -0.00340891)
(0.902885 0.000473907 0.00321774)
(0.999411 0.00261917 0.000312822)
(1.01403 0.00591443 -0.000283485)
(1.0278 0.0111838 -8.15621e-05)
(1.03658 0.00411468 0.000216263)
(1.04542 0.0114919 -0.000238652)
(1.08468 0.00322556 -0.000129605)
(1.05666 0.00398193 -0.000193462)
(1.0329 -0.00333433 -0.00018312)
(0.987363 -0.00070718 8.67654e-05)
(0.958669 0.00378413 6.23418e-05)
(0.945516 0.0186126 -0.000162239)
(0.885983 0.0263666 0.000165182)
(0.883571 0.0317065 0.000102281)
(0.89798 0.0406985 -0.00053937)
(0.904013 0.0434852 0.000500593)
(0.952918 0.0311228 -0.000480514)
(0.914474 0.0294442 0.000737702)
(0.992655 0.032637 -8.35508e-05)
(0.905923 0.0303165 -0.00105822)
(0.925176 0.0362502 0.00187664)
(0.982153 -0.00586397 0.000440094)
(1.02792 -0.000493668 -0.000203564)
(1.02264 -0.0132301 -0.000184063)
(1.06703 -0.0094791 0.000116978)
(1.05391 -0.00417354 -0.000740548)
(1.09712 -0.0184309 0.00133756)
(1.0811 -0.00339924 -0.000891158)
(1.05392 -0.00778092 0.00089678)
(1.05311 -0.0104165 -5.97809e-05)
(1.02927 -0.000334849 -0.000872411)
(1.01284 -0.00426814 0.00174364)
(1.00796 0.0161897 -0.000921121)
(0.930852 0.0113228 -0.00021241)
(0.940785 -0.00884326 0.00430393)
(0.954002 -0.0318891 0.00148841)
(0.933945 -0.0502923 0.00303371)
(0.959665 -0.0353213 0.00490572)
(0.960498 -0.0428289 0.00329363)
(0.955745 -0.0295516 0.00251025)
(0.959235 -0.00927256 0.00135434)
(0.980579 -0.00207101 0.000400884)
(1.03607 -0.0347845 0.00028719)
(1.01502 -0.0174189 -0.000149058)
(1.07808 -0.0135324 -0.000735349)
(1.0635 -0.0114094 -0.000111976)
(1.1081 -0.000819517 0.000919256)
(1.0966 0.0393088 -0.00115075)
(1.05371 0.033996 0.00271281)
(1.07022 0.0217178 -0.000953214)
(1.03544 0.0388901 -0.000694734)
(1.03566 0.0243864 0.0047132)
(1.03798 0.0479555 -0.00195308)
(0.905599 0.0380877 -0.00246324)
(0.908023 -0.0112595 0.0100447)
(0.925987 0.0509415 0.00283951)
(0.930371 0.0435197 0.00595072)
(0.965519 0.0207041 0.010878)
(0.96823 0.0616462 0.00540136)
(0.992614 0.0342991 0.00675801)
(0.984926 0.0059446 0.00321553)
(0.981419 -0.0178893 0.000648038)
(1.02111 -0.0389398 -0.000974033)
(1.04698 -0.0495358 -0.00261814)
(1.10673 -0.055283 0.00398249)
(1.13682 -0.0228993 -0.0022476)
(1.14725 -0.0553408 0.00515326)
(1.12998 0.0439235 0.000308937)
(1.04135 0.00876926 -0.00167587)
(1.07515 -0.00432313 0.00800495)
(1.08705 0.0382774 -0.0078908)
(1.00066 -0.0132774 0.00194917)
(1.02443 0.128343 0.00125583)
(0.971102 0.116318 0.000463265)
(0.924466 -0.017144 0.016048)
(0.957714 -0.0433746 0.0179686)
(0.924441 -0.0687706 0.0526662)
(0.95211 -0.0161487 0.0608321)
(0.951167 -0.0220318 0.0536208)
(0.925393 -0.018367 0.0495105)
(0.960618 0.00799856 0.0225471)
(0.982946 -0.0035578 0.00222756)
(1.036 -0.0808247 0.00180235)
(1.02972 -0.0894081 -0.0226603)
(1.13183 -0.062953 -0.00292774)
(1.20915 -0.00779338 0.0285164)
(1.18347 0.0108276 -0.00127481)
(1.1418 0.126505 -0.00563468)
(1.08161 0.0947388 0.0133326)
(1.12492 -0.0134407 0.00636062)
(1.13951 0.0927781 -0.00671099)
(1.05158 0.107703 0.0288346)
(1.19836 0.0664447 -0.0219675)
(0.98688 0.0953694 -0.0154548)
(0.782662 0.0152708 0.0491844)
(0.817321 0.105903 0.0618314)
(0.83076 0.125354 0.0796101)
(0.856459 0.0692224 0.0647019)
(0.812113 0.150976 0.0385089)
(0.894495 0.0682076 0.0477643)
(1.00124 0.00333272 0.0235937)
(0.995398 -0.0257068 0.00669174)
(1.03408 -0.103094 -0.00136712)
(1.13374 -0.163985 -0.0301842)
(1.29811 -0.214353 -0.0513934)
(1.24416 -0.0438413 -0.0234289)
(1.20862 0.00586847 0.0526024)
(1.26915 0.149059 0.0467905)
(1.16108 0.028519 -0.021674)
(1.13872 -0.0597015 -0.00627937)
(1.2371 0.122206 0.00537252)
(1.06471 -0.0291002 -0.00405242)
(1.03706 0.197072 0.0160433)
(0.910767 0.450136 0.0591072)
(0.840803 0.145071 0.0591214)
(0.73039 -0.0374947 0.0374254)
(0.709681 0.00618161 0.0159184)
(0.708834 0.101903 0.0224809)
(0.682098 -0.00681388 0.0149341)
(0.694893 -0.144683 0.0228232)
(0.850838 -0.05755 0.0170757)
(1.0132 -0.0146138 0.00528607)
(0.955148 -0.144937 -0.00196392)
(1.21648 -0.325568 0.018502)
(1.4094 -0.184813 -0.09097)
(1.41321 0.126649 -0.138087)
(1.39218 0.115798 0.0370042)
(1.33568 0.232867 0.0698898)
(1.25141 0.161197 0.0444783)
(1.28999 -0.119779 0.00176982)
(1.4356 0.252198 -0.0512916)
(1.24882 0.263755 -0.0451383)
(1.12514 0.17158 0.0116733)
(1.33905 0.346628 -0.0164998)
(1.37397 0.236585 -0.0294811)
(1.11827 0.247803 0.0637756)
(0.805306 0.193734 0.080808)
(0.752622 0.0548381 0.0348852)
(0.678978 0.0970187 -0.0323726)
(0.572605 -0.156288 -0.051114)
(0.873289 -0.148131 0.000305649)
(1.01942 -0.0132726 0.0528808)
(1.09638 -0.23817 -0.0600807)
(1.36335 -0.580397 0.0194171)
(1.66548 -0.484983 -0.0431255)
(1.45669 -0.10281 0.029293)
(1.60723 0.148339 -0.0683201)
(1.35927 0.342669 -0.0327824)
(1.41331 0.221266 0.0842353)
(1.13749 -0.351474 0.0105749)
(1.5725 -0.0549544 -0.10105)
(1.69616 0.0370191 -0.059687)
(1.46141 0.0969289 0.0284872)
(1.229 0.346207 -0.0603056)
(1.23178 0.325133 -0.0415367)
(1.02545 0.262692 0.0633743)
(0.675968 0.0921356 -0.011073)
(0.686315 -0.0431074 -0.0636733)
(0.587852 -0.0248913 -0.0837519)
(0.718917 -0.43677 -0.102193)
(0.88958 -0.370063 -0.031814)
(1.05172 0.0182368 0.00638168)
(0.937544 -0.451081 0.00853234)
(1.7989 -0.901701 0.106122)
(2.10017 -0.624492 0.234847)
(2.13284 0.0741403 0.0574611)
(1.72218 0.430788 0.0053345)
(1.59843 0.457822 0.011539)
(1.29098 0.443361 -0.181099)
(0.661137 -0.377564 -0.0469309)
(1.36875 -0.195811 0.140135)
(1.5382 0.191068 0.139298)
(1.57387 0.445474 -0.0220169)
(1.31126 0.46868 -0.0838521)
(1.35033 0.408803 0.0259072)
(1.18263 0.663371 0.0397877)
(1.05333 0.415688 -0.0283582)
(1.00682 0.0474155 0.00652695)
(0.95884 0.0455262 0.0120889)
(0.913576 -0.423327 -0.0619272)
(1.00279 -0.370971 -0.0601767)
(1.45061 -0.00539165 -0.119721)
(0.93829 -0.82616 0.118661)
(1.32692 -1.67208 -0.188061)
(0.125431 -0.0943575 0.0352928)
(0.125594 0.658967 0.109422)
(-0.061634 -0.507513 0.131202)
(0.519142 -0.210812 0.11775)
(0.424724 -0.124801 0.0986722)
(1.13911 -0.00588346 0.0494802)
(1.53065 0.506758 0.0720111)
(1.21446 0.610472 0.0296276)
(1.18962 0.487174 -0.0463292)
(1.37337 0.244421 0.0540327)
(1.26291 0.144693 0.108198)
(1.02951 0.172055 0.0480649)
(1.03348 -0.428037 0.0102091)
(1.0778 -0.49658 -0.0168413)
(0.500565 0.218023 -0.143082)
(2.2053 -0.880295 0.224303)
(0.669261 -0.411113 -0.779658)
(0.0455085 0.248528 -0.0832149)
(-0.0934731 0.209522 0.123881)
(-0.119908 -0.667151 -0.00409845)
(-0.0141994 -0.435425 0.0669411)
(-0.02684 -0.278269 0.042989)
(0.581753 -0.209846 0.113528)
(0.945231 0.462886 -0.00181888)
(0.952484 0.44603 -0.0627324)
(1.22037 0.486092 0.0328038)
(1.31501 0.506708 0.105103)
(1.11404 0.424508 0.0330591)
(1.03153 0.24885 -0.0186005)
(1.11028 -0.42297 -0.0328107)
(1.12771 -0.353039 -0.00225213)
(0.99086 0.0419751 0.0179847)
(0.139696 0.0372835 0.403361)
(-0.0790256 0.256126 -0.053055)
(0.349765 0.546079 -0.0239481)
(0.599944 -0.590944 -0.0207948)
(0.19742 -0.510651 -0.13983)
(0.449994 -0.600125 -0.141229)
(0.409155 -0.686503 0.055625)
(0.667514 0.117244 0.126296)
(1.03846 0.353264 0.101941)
(1.42431 0.49551 0.174091)
(1.32579 0.526683 0.140521)
(1.04765 0.226926 -0.0457865)
(0.924688 0.121137 -0.121915)
(1.10729 -0.543011 -0.072518)
(1.21458 -0.55424 -0.0323928)
(1.226 -0.106938 0.0440334)
(1.36134 0.504695 -0.154223)
(0.174762 0.882805 -0.150084)
(0.0788739 0.364529 -0.0778543)
(0.713819 -0.258697 -0.0364229)
(1.40119 -0.738385 0.0798622)
(1.08927 -0.467417 -0.0187853)
(1.37477 -0.534373 -0.223438)
(1.16644 -0.615692 -0.206351)
(0.827631 0.0227057 0.0807801)
(1.05852 0.22999 0.180229)
(1.12614 0.6131 0.177298)
(0.891459 0.764963 0.0268901)
(1.08291 0.584185 -0.086702)
(1.2715 0.28359 -0.0689397)
(1.34071 -0.523537 0.028006)
(1.17912 -0.45863 0.0331523)
(0.951436 0.108159 0.073377)
(1.10847 0.22668 0.0164347)
(1.0787 0.790588 -0.201259)
(0.207131 -0.162848 0.177734)
(1.46545 -0.145115 0.0531753)
(1.93511 -0.368516 -0.0194641)
(1.71577 -0.766288 -0.119835)
(1.32885 -0.634409 0.0801541)
(1.26262 -0.445905 0.113594)
(1.43124 -0.520207 -0.182849)
(1.48508 -0.160374 -0.173985)
(1.11041 0.111671 0.0525264)
(0.731463 0.60721 0.0786177)
(0.725832 0.422354 -0.0971825)
(1.16214 -0.121 -0.0645341)
(1.33189 -0.0396656 -0.0221447)
(1.37379 -0.389759 -0.0433409)
(1.25321 -0.436002 -0.00151959)
(1.11744 0.0797267 0.0711877)
(0.915336 0.21076 0.00784647)
(1.4942 0.597306 -0.0652279)
(1.68115 0.311965 0.0525854)
(1.97804 -0.00257735 -0.157006)
(1.55701 -0.218258 0.0783271)
(1.4908 -0.333973 0.0405621)
(1.56263 -0.366843 0.0621143)
(1.30523 -0.335059 0.0482564)
(0.791559 -0.30293 -0.0290866)
(0.779971 -0.386018 0.0363945)
(0.661543 -0.339554 -0.00163262)
(0.790658 0.143798 -0.00968776)
(0.542595 0.363859 0.0294828)
(0.60388 0.580721 -0.0332913)
(0.991359 0.24044 -0.0520594)
(1.22354 0.194196 0.000366633)
(1.21575 0.128926 -0.06317)
(1.3067 -0.508895 -0.0480937)
(1.02002 -0.361476 -0.00224201)
(1.02234 0.11155 0.00734585)
(1.01519 0.0471089 0.0353162)
(1.16963 0.275484 0.0025965)
(1.52344 0.156254 -0.00657545)
(1.63118 -0.0496919 0.0454594)
(1.3605 -0.045351 0.00555287)
(1.42417 -0.15105 -0.0328341)
(1.21807 -0.287548 -0.0579123)
(1.23648 -0.244389 -0.0305873)
(1.24519 -0.165697 -0.0103748)
(1.15308 -0.384503 0.0388191)
(0.867162 -0.439706 0.00229036)
(0.705211 0.0854899 -0.0595481)
(0.819721 0.199178 -0.049432)
(0.956592 0.232768 -0.0269042)
(1.11147 -0.0497642 -0.00443589)
(1.04193 -0.193235 -0.0114986)
(1.30125 -0.0775286 0.0280303)
(1.30412 -0.188832 0.0345804)
(0.936195 -0.151846 0.000673914)
(0.999897 0.0379422 -0.00673423)
(1.07773 0.11356 0.0107971)
(1.11998 0.17154 0.0230421)
(1.25712 0.0369135 0.0416235)
(1.31714 0.108259 0.0186615)
(1.2717 -0.0650082 -0.0739373)
(1.18866 -0.17284 -0.0722959)
(1.25015 -0.106152 -0.0297127)
(1.11282 -0.240723 -0.0210023)
(1.01675 -0.145859 -0.0132519)
(0.947774 -0.0927988 0.0173002)
(0.741491 -0.110538 -0.00746315)
(0.762419 0.0409567 -0.0900713)
(0.927363 0.0516208 -0.0819707)
(1.07347 0.228649 -0.0670375)
(1.2172 0.163478 -0.0342708)
(1.04469 0.0401577 -0.0237663)
(0.939018 -0.114566 0.0235624)
(0.981719 -0.271839 0.000535283)
(0.887417 -0.0668124 -0.0349878)
(1.0066 0.0459271 -0.0053795)
(1.01124 0.018437 -0.0011082)
(1.10327 0.0847528 0.0287982)
(1.11884 0.0161674 0.00308951)
(1.11984 -0.012632 -0.0276651)
(1.24125 0.0455541 -0.0276227)
(1.10917 -0.104878 -0.0216751)
(1.13249 -0.165251 -0.0151216)
(1.0974 -0.0995055 -0.00129623)
(0.966651 -0.0687936 0.00301176)
(0.985805 -0.162937 -0.00772481)
(0.885903 -0.180413 0.0104923)
(0.87784 0.015071 -0.0422807)
(0.91444 -0.00516113 -0.0495148)
(0.95129 0.00471394 -0.0358147)
(1.11724 -0.0402238 0.00351465)
(1.08555 0.0559542 0.000660623)
(1.12432 0.00794742 -0.0264352)
(0.976152 -0.1616 0.0209437)
(0.853674 -0.0431802 0.0237035)
(1.00428 0.0164608 -0.00171898)
(1.03085 0.0343206 0.00207669)
(1.04529 0.0482218 0.0062644)
(1.09801 0.0126038 -0.00313442)
(1.07313 0.0618309 -0.00869122)
(1.12194 0.0033899 -0.0112004)
(1.12751 -0.0322102 -0.00603751)
(1.05918 -0.064523 -0.00316947)
(1.00861 -0.0823585 -0.00456355)
(0.988712 -0.0352795 0.00567336)
(0.967187 -0.0380095 -0.00116106)
(0.869711 -0.0239259 0.00142138)
(0.873198 0.0511159 -0.007393)
(0.921291 0.0654439 -0.0123871)
(0.936571 0.102054 -0.00311127)
(0.967321 0.0485334 -0.00339799)
(0.915236 0.039765 0.00749731)
(1.05111 0.00164663 -0.00247968)
(0.969881 -0.0428736 -0.00137371)
(0.93168 0.0442624 0.0161042)
(1.00042 0.012259 0.000741031)
(1.01011 0.00980486 -0.000503249)
(1.03986 0.0139878 -0.000368184)
(1.03845 0.0053798 0.00167942)
(1.05755 0.0188706 -0.00262345)
(1.10366 0.0061003 -0.00139782)
(1.06339 -0.0462421 -0.00133035)
(1.05458 -0.0534484 -0.000838764)
(0.991261 -0.0587891 0.000541831)
(0.95805 -0.0363016 -0.000684769)
(0.94269 -0.0723751 0.000275575)
(0.881737 -0.0851708 0.000648855)
(0.884484 -0.0168723 0.000558262)
(0.895524 -0.0235964 -0.00219976)
(0.916424 -0.00727997 0.000523602)
(0.978546 -0.0208306 -0.00254747)
(0.929124 -0.00078701 0.0059751)
(0.999452 -0.0372717 0.00146118)
(0.889441 -0.0809909 -0.00687918)
(0.909308 -0.0161601 0.00495483)
(0.999335 0.00273752 0.000633359)
(1.01386 0.00560849 -0.000574767)
(1.02812 0.0113829 -0.000103149)
(1.03636 0.00408211 0.000396995)
(1.04532 0.0111974 -0.000778571)
(1.08486 0.00370105 -0.000458762)
(1.05659 0.00392781 -0.00047808)
(1.03309 -0.00359754 -0.00043678)
(0.987522 -0.00017455 0.000174479)
(0.958453 0.00388315 6.40186e-05)
(0.945643 0.0179896 -0.000304772)
(0.886052 0.0269517 0.000333331)
(0.883292 0.0315141 -6.16268e-05)
(0.89813 0.0402631 -0.00120007)
(0.904128 0.0439107 0.000729475)
(0.952636 0.0317786 -0.000912894)
(0.915069 0.0287391 0.00120558)
(0.991671 0.0313088 -0.000183759)
(0.90647 0.0312817 -0.00188956)
(0.926214 0.0351675 0.00313585)
(0.982409 -0.00601412 0.000204849)
(1.02744 -6.96826e-05 -9.05989e-05)
(1.02289 -0.0135236 -8.00926e-05)
(1.06696 -0.00981507 1.51487e-05)
(1.05394 -0.00357935 -0.00038562)
(1.09743 -0.0191455 0.000603872)
(1.08051 -0.00268315 -0.000421438)
(1.05452 -0.00815618 0.000391253)
(1.05261 -0.0103517 -0.000106355)
(1.02929 -9.8685e-05 -0.00036314)
(1.01346 -0.0045648 0.000693264)
(1.00718 0.0163152 -0.000394718)
(0.931399 0.0112691 2.81143e-06)
(0.94178 -0.00831928 0.00171052)
(0.953906 -0.0316294 0.000616464)
(0.934222 -0.0505067 0.000846923)
(0.959914 -0.036576 0.00136348)
(0.960277 -0.0444268 0.000678995)
(0.955389 -0.0299185 0.000518547)
(0.959128 -0.0092087 0.000375214)
(0.98149 0.000130084 0.000168135)
(1.03453 -0.0360438 0.000187711)
(1.01494 -0.0181999 -1.7164e-05)
(1.07948 -0.0128964 -0.000531868)
(1.06302 -0.0157131 -0.000152722)
(1.10965 0.00559881 0.000325708)
(1.09389 0.0345366 -0.000700242)
(1.05529 0.0377322 0.00136924)
(1.07006 0.0211234 -0.000648429)
(1.03509 0.0345176 -0.000869178)
(1.03727 0.0312928 0.00210851)
(1.03667 0.0449485 -0.00121422)
(0.906961 0.0366849 -0.0013757)
(0.913121 0.00296242 0.00383522)
(0.927154 0.0567796 0.00116388)
(0.931465 0.0496025 0.000597206)
(0.967363 0.0321991 -7.94769e-05)
(0.969677 0.0683724 -0.00213559)
(0.993426 0.0384254 -0.00021091)
(0.985627 0.00859936 0.000175907)
(0.984658 -0.0160343 0.000128167)
(1.01502 -0.036116 -0.000283641)
(1.04534 -0.0523794 -0.000312969)
(1.11268 -0.0605774 0.000649351)
(1.13686 -0.0240726 -0.00275684)
(1.14742 -0.0514192 0.00191435)
(1.12681 0.0387794 0.000397469)
(1.04521 0.0180004 -0.00122348)
(1.07531 -0.00908198 0.00179037)
(1.08432 0.0298231 -0.00258013)
(1.01387 0.0045985 -0.000523372)
(1.02111 0.116422 0.00039365)
(0.963414 0.0984885 0.000846666)
(0.952284 0.0155573 0.00545182)
(0.979581 -0.0310421 0.00644478)
(0.958073 -0.0732104 0.0170399)
(0.979614 -0.0329433 0.0230818)
(0.966393 -0.0527326 0.0208379)
(0.923875 -0.0279052 0.0171035)
(0.955157 0.00675804 0.00756387)
(0.981451 0.00198562 3.32942e-05)
(1.03414 -0.0809037 0.00132464)
(1.0315 -0.102611 -0.00730039)
(1.12921 -0.0590553 -0.00262501)
(1.19948 -0.0332948 0.0112947)
(1.20507 0.0345693 -0.00344885)
(1.13401 0.121954 -0.00531015)
(1.05859 0.0847153 0.00428719)
(1.1595 0.00211984 0.00120063)
(1.11209 0.0574516 -0.00528008)
(1.09735 0.106554 0.00721779)
(1.21218 0.0870091 -0.0117552)
(0.915317 0.0811676 -0.00680859)
(0.796725 0.0541042 0.0194587)
(0.859294 0.151877 0.0267208)
(0.946195 0.243699 0.0182619)
(1.06586 0.266678 0.00202137)
(0.990242 0.349595 -0.0070136)
(0.996024 0.232663 0.00518527)
(1.03634 0.0732467 0.0047139)
(0.997892 -0.0198097 0.00119045)
(1.03839 -0.0920037 -0.00287674)
(1.11807 -0.232452 -0.00949758)
(1.29088 -0.234403 -0.0156728)
(1.24161 0.0378913 -0.0207162)
(1.1965 -0.0325361 0.00311345)
(1.25029 0.126821 0.0100706)
(1.16319 0.0481205 0.00913788)
(1.19107 -0.0590198 -0.0127115)
(1.20006 0.0629883 -0.0159271)
(1.04087 0.012146 0.00135984)
(1.05998 0.151598 0.00948437)
(0.928689 0.362344 0.00972716)
(0.959121 0.277619 0.0157908)
(1.01002 0.0737502 0.0106146)
(1.01308 0.0208375 -0.0336581)
(0.885205 0.139989 -0.0363225)
(0.778665 0.082491 -0.0110751)
(0.84445 0.0700531 0.00900995)
(0.909944 0.060746 0.00472325)
(1.03142 -4.32312e-05 -0.00274528)
(0.945409 -0.16995 0.00855081)
(1.15405 -0.411206 -0.0102241)
(1.45175 -0.306798 -0.0371912)
(1.43585 -0.0687311 -0.0605136)
(1.31789 0.176315 -0.00948281)
(1.33348 0.33132 0.00663385)
(1.29697 0.118352 0.00251995)
(1.31474 -0.124792 -0.0210147)
(1.49119 0.176406 0.00500216)
(1.34445 0.240193 0.001654)
(1.1283 0.253731 -0.0348969)
(1.10917 0.338526 -0.0311172)
(0.945495 0.203753 0.0166103)
(1.08509 0.249866 0.0303534)
(1.11166 0.3441 0.0351859)
(1.09603 0.403451 0.0420677)
(0.996219 0.422155 0.0109931)
(0.706468 0.225508 -0.00064216)
(0.909716 0.0733612 0.0075385)
(1.06096 0.00500221 -0.006657)
(1.04314 -0.206555 0.0168418)
(1.3853 -0.698621 -0.0377971)
(1.63274 -0.777935 -0.0342766)
(1.76951 -0.523573 -0.0169921)
(1.65593 0.127193 -0.012733)
(1.37771 0.370229 -0.021468)
(1.42522 0.208999 0.0131095)
(1.41962 -0.346556 0.00223691)
(1.65054 -0.0653296 -0.0311235)
(1.41408 0.169537 -0.0294007)
(1.48288 0.208949 0.02055)
(1.44136 0.396416 0.0102032)
(1.15623 0.323016 -0.020465)
(1.04964 0.172529 -0.00796889)
(0.856583 0.344245 0.0106717)
(0.898893 0.438824 0.00448923)
(0.733451 0.318275 -0.0240696)
(0.775042 -0.0187682 -0.0283043)
(0.902137 -0.108192 0.00270756)
(1.05028 0.0932331 -0.0102034)
(0.902875 -0.625186 0.0467047)
(1.90688 -1.22696 0.0784271)
(2.02568 -0.822071 0.182778)
(2.15858 0.0106265 0.110265)
(1.59068 0.403315 0.0256073)
(1.58908 0.36889 0.0194851)
(1.20642 0.384031 -0.0419764)
(0.577174 -0.288238 -0.0241456)
(1.19485 -0.15352 -0.0126931)
(1.42887 0.0604904 0.0141424)
(1.80977 0.383939 0.0246704)
(1.31697 0.428238 -0.0309376)
(1.12478 0.291784 -0.0406609)
(0.970621 0.620355 0.0158033)
(0.76512 0.535912 0.00673851)
(0.895982 0.336548 -0.0129356)
(0.949678 0.208971 -0.0174289)
(0.883172 -0.287884 -0.0438116)
(0.971118 -0.137294 -0.0228197)
(1.35902 0.00508484 -0.0932521)
(0.69419 -1.03753 0.130914)
(1.54887 -1.45329 -0.134022)
(0.18826 -0.0365372 -0.0145289)
(-0.24185 0.240431 0.100905)
(-0.0706946 -0.613177 0.0381287)