/*--------------------------------*- C++ -*----------------------------------*\
  =========                 |
  \\      /  F ield         | OpenFOAM: The Open Source CFD Toolbox
   \\    /   O peration     | Website:  https://openfoam.org
    \\  /    A nd           | Version:  8
     \\/     M anipulation  |
\*---------------------------------------------------------------------------*/
FoamFile
{
    version     2.0;
    format      ascii;
    class       surfaceScalarField;
    location    "19.5";
    object      phi;
}
// * * * * * * * * * * * * * * * * * * * * * * * * * * * * * * * * * * * * * //

dimensions      [0 3 -1 0 0 0 0];

internalField   nonuniform List<scalar> 
22960
(
-1.50383e-07
1.50384e-07
-5.14022e-07
3.63639e-07
-9.4593e-07
4.31908e-07
-1.39337e-06
4.47436e-07
-1.84199e-06
4.4862e-07
-2.28944e-06
4.47451e-07
-2.73564e-06
4.46199e-07
-3.18058e-06
4.44949e-07
-3.62419e-06
4.43608e-07
-4.06631e-06
4.42122e-07
-4.50678e-06
4.40463e-07
-4.94539e-06
4.38618e-07
-5.38197e-06
4.36579e-07
-5.81632e-06
4.34342e-07
-6.24822e-06
4.31902e-07
-6.67748e-06
4.29258e-07
-7.10388e-06
4.26405e-07
-7.52722e-06
4.23341e-07
-7.94729e-06
4.20064e-07
-8.36386e-06
4.16571e-07
-8.77672e-06
4.1286e-07
-9.18565e-06
4.08928e-07
-9.59042e-06
4.04774e-07
-9.99081e-06
4.00396e-07
-1.03866e-05
3.95792e-07
-1.07776e-05
3.90963e-07
-1.11635e-05
3.85909e-07
-1.15441e-05
3.8063e-07
-1.19192e-05
3.75128e-07
-1.22886e-05
3.69408e-07
-1.26521e-05
3.63475e-07
-1.30095e-05
3.57336e-07
-1.33605e-05
3.51002e-07
-1.37049e-05
3.44485e-07
-1.40427e-05
3.37804e-07
-1.43737e-05
3.30982e-07
-1.46978e-05
3.24047e-07
-1.50148e-05
3.17036e-07
-1.53248e-05
3.09997e-07
-1.56278e-05
3.02989e-07
-1.59239e-05
2.96089e-07
-1.62133e-05
2.89394e-07
-1.64963e-05
2.8303e-07
-1.67735e-05
2.77159e-07
-1.70455e-05
2.71992e-07
-1.73133e-05
2.67809e-07
-1.75783e-05
2.64984e-07
-1.78423e-05
2.64023e-07
-1.81079e-05
2.65625e-07
-1.83787e-05
2.70772e-07
-1.86596e-05
2.80876e-07
-1.89576e-05
2.98033e-07
-1.92831e-05
3.25477e-07
-1.96515e-05
3.68428e-07
-2.0088e-05
4.36534e-07
-2.06412e-05
5.53171e-07
-2.14173e-05
7.76095e-07
-2.26579e-05
1.24062e-06
-2.57977e-05
3.13983e-06
7.27114e-06
-3.30689e-05
-3.66454e-07
5.16837e-07
-1.053e-06
1.05019e-06
-1.8432e-06
1.2221e-06
-2.65902e-06
1.26326e-06
-3.47913e-06
1.26873e-06
-4.29856e-06
1.26688e-06
-5.11594e-06
1.26358e-06
-5.93064e-06
1.25965e-06
-6.74217e-06
1.25514e-06
-7.55007e-06
1.25002e-06
-8.35388e-06
1.24428e-06
-9.15316e-06
1.2379e-06
-9.94745e-06
1.23087e-06
-1.07363e-05
1.22318e-06
-1.15192e-05
1.21484e-06
-1.22958e-05
1.20584e-06
-1.30656e-05
1.19617e-06
-1.38281e-05
1.18584e-06
-1.45828e-05
1.17483e-06
-1.53294e-05
1.16315e-06
-1.60674e-05
1.1508e-06
-1.67962e-05
1.13778e-06
-1.75155e-05
1.12408e-06
-1.82248e-05
1.1097e-06
-1.89237e-05
1.09466e-06
-1.96117e-05
1.07896e-06
-2.02884e-05
1.0626e-06
-2.09533e-05
1.04559e-06
-2.16062e-05
1.02795e-06
-2.22465e-05
1.00969e-06
-2.28738e-05
9.90843e-07
-2.34879e-05
9.71428e-07
-2.40884e-05
9.51485e-07
-2.4675e-05
9.3106e-07
-2.52474e-05
9.1021e-07
-2.58054e-05
8.89005e-07
-2.63489e-05
8.67536e-07
-2.68778e-05
8.45914e-07
-2.73921e-05
8.24279e-07
-2.78919e-05
8.02806e-07
-2.83775e-05
7.81717e-07
-2.88494e-05
7.61292e-07
-2.93083e-05
7.4189e-07
-2.97551e-05
7.23976e-07
-3.01912e-05
7.08155e-07
-3.06186e-05
6.95223e-07
-3.10399e-05
6.86253e-07
-3.14586e-05
6.82705e-07
-3.18796e-05
6.86612e-07
-3.23097e-05
7.00868e-07
-3.27585e-05
7.29702e-07
-3.324e-05
7.79489e-07
-3.37746e-05
8.60153e-07
-3.43939e-05
9.87711e-07
-3.51475e-05
1.19015e-06
-3.61158e-05
1.52139e-06
-3.7418e-05
2.07829e-06
-3.92419e-05
3.06451e-06
-4.15662e-05
5.4642e-06
9.03657e-06
-4.33317e-05
-4.37545e-07
9.54383e-07
-1.23172e-06
1.84436e-06
-2.13857e-06
2.12895e-06
-3.07172e-06
2.19641e-06
-4.00881e-06
2.20582e-06
-4.94474e-06
2.20281e-06
-5.87807e-06
2.19691e-06
-6.80809e-06
2.18966e-06
-7.7342e-06
2.18125e-06
-8.65585e-06
2.17167e-06
-9.5725e-06
2.16092e-06
-1.04836e-05
2.14898e-06
-1.13886e-05
2.13585e-06
-1.22869e-05
2.12151e-06
-1.3178e-05
2.10596e-06
-1.40614e-05
2.08921e-06
-1.49365e-05
2.07125e-06
-1.58027e-05
2.05207e-06
-1.66595e-05
2.03169e-06
-1.75065e-05
2.01009e-06
-1.8343e-05
1.98728e-06
-1.91684e-05
1.96326e-06
-1.99824e-05
1.93804e-06
-2.07843e-05
1.91163e-06
-2.15737e-05
1.88403e-06
-2.235e-05
1.85526e-06
-2.31127e-05
1.82533e-06
-2.38614e-05
1.79427e-06
-2.45956e-05
1.76211e-06
-2.53148e-05
1.72888e-06
-2.60185e-05
1.69462e-06
-2.67065e-05
1.65939e-06
-2.73783e-05
1.62326e-06
-2.80335e-05
1.5863e-06
-2.86719e-05
1.54863e-06
-2.92933e-05
1.51036e-06
-2.98974e-05
1.47165e-06
-3.04842e-05
1.4327e-06
-3.10537e-05
1.39375e-06
-3.1606e-05
1.3551e-06
-3.21414e-05
1.31711e-06
-3.26603e-05
1.28028e-06
-3.31636e-05
1.24519e-06
-3.36523e-05
1.21262e-06
-3.41277e-05
1.18358e-06
-3.45918e-05
1.15936e-06
-3.50473e-05
1.14171e-06
-3.54976e-05
1.13297e-06
-3.59473e-05
1.13633e-06
-3.64027e-05
1.15627e-06
-3.68721e-05
1.19916e-06
-3.7367e-05
1.2743e-06
-3.79024e-05
1.39562e-06
-3.84993e-05
1.58462e-06
-3.91855e-05
1.87633e-06
-3.99939e-05
2.32977e-06
-4.09522e-05
3.03657e-06
-4.20654e-05
4.17776e-06
-4.28712e-05
6.27e-06
8.98365e-06
-4.28183e-05
-4.5494e-07
1.40932e-06
-1.27805e-06
2.66747e-06
-2.21491e-06
3.06581e-06
-3.17754e-06
3.15903e-06
-4.14374e-06
3.17203e-06
-5.10861e-06
3.16768e-06
-6.07076e-06
3.15907e-06
-7.02946e-06
3.14837e-06
-7.98409e-06
3.13588e-06
-8.93406e-06
3.12164e-06
-9.87878e-06
3.10564e-06
-1.08177e-05
3.08788e-06
-1.17502e-05
3.06834e-06
-1.26757e-05
3.04702e-06
-1.35936e-05
3.02393e-06
-1.45035e-05
2.99905e-06
-1.54046e-05
2.9724e-06
-1.62965e-05
2.94397e-06
-1.71786e-05
2.91376e-06
-1.80503e-05
2.88177e-06
-1.8911e-05
2.84802e-06
-1.97603e-05
2.81251e-06
-2.05975e-05
2.77524e-06
-2.14221e-05
2.73624e-06
-2.22336e-05
2.69551e-06
-2.30314e-05
2.65309e-06
-2.38151e-05
2.60899e-06
-2.4584e-05
2.56326e-06
-2.53379e-05
2.51593e-06
-2.6076e-05
2.46705e-06
-2.67981e-05
2.4167e-06
-2.75037e-05
2.36494e-06
-2.81923e-05
2.31188e-06
-2.88636e-05
2.25764e-06
-2.95173e-05
2.20236e-06
-3.01532e-05
2.14621e-06
-3.0771e-05
2.08942e-06
-3.13705e-05
2.03225e-06
-3.19518e-05
1.97505e-06
-3.25149e-05
1.91821e-06
-3.30601e-05
1.86226e-06
-3.35876e-05
1.80783e-06
-3.40982e-05
1.75575e-06
-3.45926e-05
1.70704e-06
-3.50721e-05
1.66303e-06
-3.55381e-05
1.62544e-06
-3.59929e-05
1.59651e-06
-3.64392e-05
1.57925e-06
-3.68805e-05
1.57765e-06
-3.73215e-05
1.59722e-06
-3.77679e-05
1.64553e-06
-3.82268e-05
1.73328e-06
-3.87069e-05
1.87572e-06
-3.92173e-05
2.09497e-06
-3.97649e-05
2.42393e-06
-4.03463e-05
2.91121e-06
-4.0934e-05
3.62424e-06
-4.14331e-05
4.67682e-06
-4.14363e-05
6.27327e-06
8.16819e-06
-4.06209e-05
-4.57582e-07
1.8669e-06
-1.28824e-06
3.49813e-06
-2.23291e-06
4.01048e-06
-3.20313e-06
4.12925e-06
-4.17672e-06
4.14562e-06
-5.14884e-06
4.1398e-06
-6.11818e-06
4.1284e-06
-7.08402e-06
4.11421e-06
-8.04576e-06
4.09762e-06
-9.00279e-06
4.07867e-06
-9.95452e-06
4.05738e-06
-1.09004e-05
4.03373e-06
-1.18398e-05
4.00773e-06
-1.27721e-05
3.97937e-06
-1.36968e-05
3.94865e-06
-1.46134e-05
3.91558e-06
-1.55211e-05
3.88015e-06
-1.64195e-05
3.84237e-06
-1.7308e-05
3.80224e-06
-1.8186e-05
3.75977e-06
-1.90529e-05
3.71496e-06
-1.99082e-05
3.66783e-06
-2.07514e-05
3.6184e-06
-2.15818e-05
3.56667e-06
-2.2399e-05
3.51268e-06
-2.32024e-05
3.45646e-06
-2.39914e-05
3.39803e-06
-2.47656e-05
3.33746e-06
-2.55245e-05
3.27478e-06
-2.62675e-05
3.21006e-06
-2.69942e-05
3.1434e-06
-2.77041e-05
3.07489e-06
-2.83969e-05
3.00466e-06
-2.90721e-05
2.93285e-06
-2.97294e-05
2.85964e-06
-3.03685e-05
2.78526e-06
-3.0989e-05
2.70998e-06
-3.15909e-05
2.63413e-06
-3.2174e-05
2.55812e-06
-3.27382e-05
2.48246e-06
-3.32837e-05
2.40776e-06
-3.38107e-05
2.3348e-06
-3.43195e-05
2.26456e-06
-3.48107e-05
2.19824e-06
-3.52851e-05
2.13741e-06
-3.57437e-05
2.08404e-06
-3.61878e-05
2.04069e-06
-3.66193e-05
2.01067e-06
-3.704e-05
1.99836e-06
-3.74523e-05
2.00953e-06
-3.78587e-05
2.05193e-06
-3.82614e-05
2.13598e-06
-3.86615e-05
2.27584e-06
-3.90572e-05
2.49073e-06
-3.94401e-05
2.80678e-06
-3.97867e-05
3.25784e-06
-4.00489e-05
3.88639e-06
-4.01228e-05
4.75073e-06
-3.97532e-05
5.90367e-06
7.20886e-06
-3.87939e-05
-4.57933e-07
2.32484e-06
-1.2917e-06
4.3319e-06
-2.23983e-06
4.95862e-06
-3.21353e-06
5.10295e-06
-4.1905e-06
5.12259e-06
-5.16592e-06
5.11522e-06
-6.13852e-06
5.101e-06
-7.10761e-06
5.0833e-06
-8.07257e-06
5.06258e-06
-9.03282e-06
5.03892e-06
-9.98777e-06
5.01232e-06
-1.09368e-05
4.98279e-06
-1.18794e-05
4.95031e-06
-1.28149e-05
4.9149e-06
-1.37428e-05
4.87654e-06
-1.46625e-05
4.83525e-06
-1.55734e-05
4.79103e-06
-1.64749e-05
4.74388e-06
-1.73665e-05
4.69381e-06
-1.82476e-05
4.64083e-06
-1.91175e-05
4.58494e-06
-1.99759e-05
4.52617e-06
-2.0822e-05
4.46452e-06
-2.16554e-05
4.40004e-06
-2.24754e-05
4.33273e-06
-2.32816e-05
4.26265e-06
-2.40734e-05
4.18983e-06
-2.48503e-05
4.11433e-06
-2.56117e-05
4.03621e-06
-2.63572e-05
3.95555e-06
-2.70862e-05
3.87246e-06
-2.77984e-05
3.78705e-06
-2.84932e-05
3.69946e-06
-2.91702e-05
3.60987e-06
-2.98291e-05
3.51849e-06
-3.04694e-05
3.42558e-06
-3.10909e-05
3.33145e-06
-3.16932e-05
3.23648e-06
-3.22762e-05
3.14113e-06
-3.28398e-05
3.04598e-06
-3.33837e-05
2.95172e-06
-3.39081e-05
2.85922e-06
-3.44131e-05
2.76954e-06
-3.48989e-05
2.68402e-06
-3.53658e-05
2.60431e-06
-3.58143e-05
2.53252e-06
-3.62449e-05
2.47129e-06
-3.66582e-05
2.424e-06
-3.70548e-05
2.39496e-06
-3.7435e-05
2.38973e-06
-3.77985e-05
2.41545e-06
-3.81438e-05
2.4813e-06
-3.84671e-05
2.59907e-06
-3.876e-05
2.78363e-06
-3.90065e-05
3.05334e-06
-3.91781e-05
3.42936e-06
-3.92254e-05
3.93371e-06
-3.90615e-05
4.58691e-06
-3.85444e-05
5.38649e-06
6.24988e-06
-3.75854e-05
-4.58514e-07
2.78335e-06
-1.29482e-06
5.1682e-06
-2.24597e-06
5.90976e-06
-3.22283e-06
6.07981e-06
-4.20294e-06
6.10271e-06
-5.18148e-06
6.09375e-06
-6.15716e-06
6.07669e-06
-7.12932e-06
6.05545e-06
-8.09735e-06
6.03061e-06
-9.06067e-06
6.00224e-06
-1.00187e-05
5.97033e-06
-1.09708e-05
5.93491e-06
-1.19164e-05
5.89595e-06
-1.2855e-05
5.85348e-06
-1.3786e-05
5.80749e-06
-1.47087e-05
5.75798e-06
-1.56226e-05
5.70496e-06
-1.65272e-05
5.64843e-06
-1.74218e-05
5.5884e-06
-1.83058e-05
5.52489e-06
-1.91788e-05
5.4579e-06
-2.00401e-05
5.38746e-06
-2.08891e-05
5.31359e-06
-2.17254e-05
5.2363e-06
-2.25483e-05
5.15564e-06
-2.33573e-05
5.07165e-06
-2.41519e-05
4.98438e-06
-2.49314e-05
4.89389e-06
-2.56955e-05
4.80024e-06
-2.64435e-05
4.70354e-06
-2.71749e-05
4.6039e-06
-2.78893e-05
4.50143e-06
-2.85861e-05
4.39631e-06
-2.9265e-05
4.28873e-06
-2.99254e-05
4.17891e-06
-3.0567e-05
4.06715e-06
-3.11893e-05
3.95378e-06
-3.1792e-05
3.83921e-06
-3.23748e-05
3.72394e-06
-3.29374e-05
3.60859e-06
-3.34796e-05
3.49388e-06
-3.40011e-05
3.38074e-06
-3.45018e-05
3.27027e-06
-3.49816e-05
3.16382e-06
-3.54404e-05
3.06309e-06
-3.5878e-05
2.97014e-06
-3.62943e-05
2.88756e-06
-3.66889e-05
2.81856e-06
-3.7061e-05
2.76711e-06
-3.74095e-05
2.73816e-06
-3.77318e-05
2.73781e-06
-3.80241e-05
2.77356e-06
-3.82794e-05
2.85439e-06
-3.84866e-05
2.99081e-06
-3.86276e-05
3.19438e-06
-3.86747e-05
3.47639e-06
-3.85862e-05
3.84524e-06
-3.83014e-05
4.30211e-06
-3.77418e-05
4.82687e-06
5.36035e-06
-3.68522e-05
-4.59471e-07
3.24282e-06
-1.29858e-06
6.00731e-06
-2.2531e-06
6.86429e-06
-3.23353e-06
7.06023e-06
-4.21723e-06
7.08641e-06
-5.19934e-06
7.07586e-06
-6.17858e-06
7.05593e-06
-7.15429e-06
7.03116e-06
-8.12587e-06
7.00219e-06
-9.09272e-06
6.96909e-06
-1.00543e-05
6.93188e-06
-1.10099e-05
6.89056e-06
-1.19591e-05
6.84513e-06
-1.29012e-05
6.7956e-06
-1.38357e-05
6.74196e-06
-1.47619e-05
6.68423e-06
-1.56794e-05
6.6224e-06
-1.65874e-05
6.55648e-06
-1.74855e-05
6.48649e-06
-1.83731e-05
6.41244e-06
-1.92495e-05
6.33433e-06
-2.01142e-05
6.2522e-06
-2.09667e-05
6.16606e-06
-2.18064e-05
6.07595e-06
-2.26326e-05
5.9819e-06
-2.34449e-05
5.88395e-06
-2.42427e-05
5.78216e-06
-2.50254e-05
5.6766e-06
-2.57925e-05
5.56734e-06
-2.65434e-05
5.45448e-06
-2.72777e-05
5.33814e-06
-2.79947e-05
5.21847e-06
-2.8694e-05
5.09562e-06
-2.93751e-05
4.9698e-06
-3.00374e-05
4.84126e-06
-3.06806e-05
4.7103e-06
-3.13041e-05
4.57727e-06
-3.19075e-05
4.44259e-06
-3.24903e-05
4.30678e-06
-3.30522e-05
4.17047e-06
-3.35927e-05
4.0344e-06
-3.41115e-05
3.89949e-06
-3.4608e-05
3.76683e-06
-3.5082e-05
3.63774e-06
-3.55327e-05
3.51386e-06
-3.59597e-05
3.39713e-06
-3.63621e-05
3.28994e-06
-3.67387e-05
3.19517e-06
-3.70879e-05
3.11628e-06
-3.74072e-05
3.05743e-06
-3.76929e-05
3.02353e-06
-3.79396e-05
3.02026e-06
-3.81391e-05
3.05397e-06
-3.82797e-05
3.1314e-06
-3.83442e-05
3.25889e-06
-3.83088e-05
3.44098e-06
-3.81417e-05
3.67805e-06
-3.78021e-05
3.96257e-06
-3.72466e-05
4.27137e-06
4.56083e-06
-3.64471e-05
-4.60725e-07
3.70355e-06
-1.30305e-06
6.84964e-06
-2.26148e-06
7.82271e-06
-3.246e-06
8.04476e-06
-4.23384e-06
8.07424e-06
-5.22008e-06
8.0621e-06
-6.20345e-06
8.0393e-06
-7.18328e-06
8.01099e-06
-8.15897e-06
7.97788e-06
-9.12994e-06
7.94006e-06
-1.00956e-05
7.89754e-06
-1.10554e-05
7.85033e-06
-1.20087e-05
7.79842e-06
-1.29549e-05
7.74182e-06
-1.38934e-05
7.68053e-06
-1.48238e-05
7.61457e-06
-1.57453e-05
7.54392e-06
-1.66574e-05
7.46861e-06
-1.75596e-05
7.38864e-06
-1.84512e-05
7.30403e-06
-1.93316e-05
7.21479e-06
-2.02004e-05
7.12094e-06
-2.10568e-05
7.02251e-06
-2.19004e-05
6.91953e-06
-2.27306e-05
6.81204e-06
-2.35467e-05
6.70008e-06
-2.43482e-05
6.58371e-06
-2.51346e-05
6.46299e-06
-2.59053e-05
6.33802e-06
-2.66597e-05
6.20889e-06
-2.73973e-05
6.07572e-06
-2.81175e-05
5.93866e-06
-2.88198e-05
5.79787e-06
-2.95035e-05
5.65357e-06
-3.01683e-05
5.50602e-06
-3.08135e-05
5.35549e-06
-3.14386e-05
5.20236e-06
-3.2043e-05
5.04705e-06
-3.26263e-05
4.89008e-06
-3.31879e-05
4.73205e-06
-3.37272e-05
4.5737e-06
-3.42436e-05
4.41589e-06
-3.47365e-05
4.25969e-06
-3.52051e-05
4.10633e-06
-3.56485e-05
3.9573e-06
-3.60657e-05
3.81438e-06
-3.64555e-05
3.67966e-06
-3.68159e-05
3.55562e-06
-3.71448e-05
3.44512e-06
-3.74388e-05
3.35148e-06
-3.76937e-05
3.27841e-06
-3.79034e-05
3.22994e-06
-3.80596e-05
3.21021e-06
-3.81512e-05
3.22298e-06
-3.81632e-05
3.27095e-06
-3.80767e-05
3.35444e-06
-3.78683e-05
3.46965e-06
-3.75117e-05
3.606e-06
-3.69829e-05
3.74256e-06
3.84696e-06
-3.6269e-05
-4.62226e-07
4.16577e-06
-1.30823e-06
7.69564e-06
-2.27111e-06
8.7856e-06
-3.2603e-06
9.03394e-06
-4.25283e-06
9.06678e-06
-5.24378e-06
9.05304e-06
-6.23186e-06
9.02738e-06
-7.21639e-06
8.99552e-06
-8.19678e-06
8.95828e-06
-9.17245e-06
8.91573e-06
-1.01428e-05
8.8679e-06
-1.11073e-05
8.81479e-06
-1.20652e-05
8.75639e-06
-1.30161e-05
8.69273e-06
-1.39594e-05
8.62379e-06
-1.48944e-05
8.54958e-06
-1.58206e-05
8.47012e-06
-1.67374e-05
8.3854e-06
-1.76442e-05
8.29544e-06
-1.85404e-05
8.20025e-06
-1.94255e-05
8.09985e-06
-2.02988e-05
7.99427e-06
-2.11598e-05
7.88351e-06
-2.20079e-05
7.76763e-06
-2.28425e-05
7.64664e-06
-2.3663e-05
7.52061e-06
-2.44689e-05
7.38959e-06
-2.52596e-05
7.25364e-06
-2.60344e-05
7.11286e-06
-2.67928e-05
6.96733e-06
-2.75343e-05
6.81718e-06
-2.82582e-05
6.66255e-06
-2.89639e-05
6.50362e-06
-2.96509e-05
6.34059e-06
-3.03186e-05
6.17371e-06
-3.09664e-05
6.00326e-06
-3.15936e-05
5.8296e-06
-3.21997e-05
5.65315e-06
-3.2784e-05
5.47438e-06
-3.33459e-05
5.29389e-06
-3.38846e-05
5.11237e-06
-3.43993e-05
4.93062e-06
-3.48892e-05
4.74961e-06
-3.53533e-05
4.57046e-06
-3.57905e-05
4.39451e-06
-3.61994e-05
4.22328e-06
-3.65783e-05
4.05855e-06
-3.69251e-05
3.90235e-06
-3.72369e-05
3.75696e-06
-3.75103e-05
3.62486e-06
-3.77406e-05
3.50871e-06
-3.79218e-05
3.41115e-06
-3.80461e-05
3.33453e-06
-3.81036e-05
3.28052e-06
-3.80821e-05
3.24939e-06
-3.79668e-05
3.23912e-06
-3.77412e-05
3.24404e-06
-3.73885e-05
3.25336e-06
-3.68958e-05
3.24984e-06
3.20928e-06
-3.62581e-05
-4.6395e-07
4.62972e-06
-1.3141e-06
8.54579e-06
-2.28199e-06
9.75349e-06
-3.27641e-06
1.00284e-05
-4.27422e-06
1.00646e-05
-5.27046e-06
1.00493e-05
-6.26382e-06
1.00207e-05
-7.25364e-06
9.98534e-06
-8.23932e-06
9.94395e-06
-9.22027e-06
9.89668e-06
-1.01959e-05
9.84353e-06
-1.11656e-05
9.78452e-06
-1.21289e-05
9.71964e-06
-1.30851e-05
9.6489e-06
-1.40336e-05
9.5723e-06
-1.49739e-05
9.48985e-06
-1.59053e-05
9.40156e-06
-1.68273e-05
9.30742e-06
-1.77393e-05
9.20746e-06
-1.86408e-05
9.10168e-06
-1.9531e-05
8.99011e-06
-2.04095e-05
8.87275e-06
-2.12756e-05
8.74964e-06
-2.21288e-05
8.62081e-06
-2.29685e-05
8.48629e-06
-2.3794e-05
8.34613e-06
-2.46048e-05
8.20039e-06
-2.54003e-05
8.04913e-06
-2.61798e-05
7.89242e-06
-2.69429e-05
7.73037e-06
-2.76888e-05
7.5631e-06
-2.8417e-05
7.39074e-06
-2.91268e-05
7.21345e-06
-2.98177e-05
7.03144e-06
-3.04889e-05
6.84494e-06
-3.11399e-05
6.65422e-06
-3.17699e-05
6.45961e-06
-3.23782e-05
6.26151e-06
-3.29642e-05
6.06037e-06
-3.3527e-05
5.85672e-06
-3.40659e-05
5.6512e-06
-3.45798e-05
5.44454e-06
-3.50678e-05
5.23758e-06
-3.55286e-05
5.03133e-06
-3.5961e-05
4.8269e-06
-3.63633e-05
4.62558e-06
-3.67336e-05
4.42882e-06
-3.70694e-05
4.23821e-06
-3.73679e-05
4.05546e-06
-3.76254e-05
3.88234e-06
-3.78373e-05
3.7206e-06
-3.79979e-05
3.57177e-06
-3.81003e-05
3.4369e-06
-3.8136e-05
3.31621e-06
-3.80952e-05
3.20854e-06
-3.79667e-05
3.11065e-06
-3.77391e-05
3.01644e-06
-3.7402e-05
2.91622e-06
-3.69481e-05
2.79601e-06
2.6379e-06
-3.63767e-05
-4.65883e-07
5.09561e-06
-1.32064e-06
9.40054e-06
-2.2941e-06
1.07269e-05
-3.29433e-06
1.10286e-05
-4.29801e-06
1.10683e-05
-5.30011e-06
1.10514e-05
-6.29934e-06
1.102e-05
-7.29504e-06
1.0981e-05
-8.28658e-06
1.09355e-05
-9.2734e-06
1.08835e-05
-1.02549e-05
1.0825e-05
-1.12305e-05
1.07601e-05
-1.21996e-05
1.06888e-05
-1.31616e-05
1.06109e-05
-1.4116e-05
1.05267e-05
-1.50621e-05
1.0436e-05
-1.59994e-05
1.03388e-05
-1.69273e-05
1.02353e-05
-1.78451e-05
1.01253e-05
-1.87523e-05
1.00089e-05
-1.96483e-05
9.88613e-06
-2.05326e-05
9.75698e-06
-2.14044e-05
9.62149e-06
-2.22633e-05
9.47968e-06
-2.31086e-05
9.33158e-06
-2.39397e-05
9.17724e-06
-2.4756e-05
9.0167e-06
-2.55569e-05
8.85004e-06
-2.63418e-05
8.67732e-06
-2.71101e-05
8.49864e-06
-2.78611e-05
8.3141e-06
-2.85942e-05
8.12383e-06
-2.93087e-05
7.92799e-06
-3.0004e-05
7.72676e-06
-3.06794e-05
7.52036e-06
-3.13343e-05
7.30903e-06
-3.19677e-05
7.09309e-06
-3.25791e-05
6.87288e-06
-3.31676e-05
6.64882e-06
-3.37322e-05
6.42138e-06
-3.42721e-05
6.19113e-06
-3.47863e-05
5.95869e-06
-3.52735e-05
5.72481e-06
-3.57325e-05
5.4903e-06
-3.61617e-05
5.25611e-06
-3.65594e-05
5.02327e-06
-3.69235e-05
4.7929e-06
-3.72515e-05
4.56619e-06
-3.75404e-05
4.34436e-06
-3.77866e-05
4.12856e-06
-3.79858e-05
3.91982e-06
-3.81329e-05
3.71882e-06
-3.82217e-05
3.52571e-06
-3.82452e-05
3.33978e-06
-3.81958e-05
3.15907e-06
-3.80651e-05
2.97993e-06
-3.78452e-05
2.79655e-06
-3.75295e-05
2.60055e-06
-3.71143e-05
2.38087e-06
2.12423e-06
-3.66007e-05
-4.68018e-07
5.56363e-06
-1.32785e-06
1.02604e-05
-2.30743e-06
1.17065e-05
-3.31406e-06
1.20352e-05
-4.32418e-06
1.20784e-05
-5.33273e-06
1.20599e-05
-6.33843e-06
1.20257e-05
-7.34057e-06
1.19832e-05
-8.33857e-06
1.19335e-05
-9.33185e-06
1.18768e-05
-1.03198e-05
1.1813e-05
-1.13018e-05
1.17422e-05
-1.22774e-05
1.16643e-05
-1.32459e-05
1.15794e-05
-1.42067e-05
1.14875e-05
-1.51592e-05
1.13885e-05
-1.61029e-05
1.12825e-05
-1.70372e-05
1.11695e-05
-1.79614e-05
1.10495e-05
-1.8875e-05
1.09225e-05
-1.97774e-05
1.07885e-05
-2.0668e-05
1.06476e-05
-2.15462e-05
1.04997e-05
-2.24113e-05
1.03448e-05
-2.32629e-05
1.01831e-05
-2.41001e-05
1.00145e-05
-2.49226e-05
9.83914e-06
-2.57295e-05
9.657e-06
-2.65204e-05
9.46818e-06
-2.72945e-05
9.27275e-06
-2.80512e-05
9.07081e-06
-2.87899e-05
8.86249e-06
-2.95098e-05
8.64791e-06
-3.02103e-05
8.42724e-06
-3.08906e-05
8.20068e-06
-3.155e-05
7.96845e-06
-3.21877e-05
7.73081e-06
-3.28029e-05
7.48808e-06
-3.33947e-05
7.24062e-06
-3.39622e-05
6.98883e-06
-3.45042e-05
6.7332e-06
-3.50198e-05
6.47426e-06
-3.55076e-05
6.21261e-06
-3.59662e-05
5.94893e-06
-3.63941e-05
5.68395e-06
-3.67893e-05
5.41848e-06
-3.71497e-05
5.15333e-06
-3.74729e-05
4.88934e-06
-3.77558e-05
4.6273e-06
-3.79951e-05
4.36789e-06
-3.81868e-05
4.11154e-06
-3.83264e-05
3.85836e-06
-3.84085e-05
3.60787e-06
-3.84276e-05
3.35882e-06
-3.83774e-05
3.10891e-06
-3.8252e-05
2.8545e-06
-3.80458e-05
2.59032e-06
-3.77546e-05
2.30938e-06
-3.73767e-05
2.00299e-06
1.66123e-06
-3.69137e-05
-4.70352e-07
6.03398e-06
-1.33572e-06
1.11257e-05
-2.32199e-06
1.26928e-05
-3.33559e-06
1.30488e-05
-4.35274e-06
1.30955e-05
-5.36833e-06
1.30755e-05
-6.38106e-06
1.30384e-05
-7.39025e-06
1.29924e-05
-8.3953e-06
1.29385e-05
-9.39561e-06
1.28771e-05
-1.03906e-05
1.2808e-05
-1.13797e-05
1.27313e-05
-1.23623e-05
1.26469e-05
-1.33378e-05
1.25549e-05
-1.43056e-05
1.24553e-05
-1.52652e-05
1.23481e-05
-1.62159e-05
1.22333e-05
-1.71572e-05
1.21108e-05
-1.80884e-05
1.19808e-05
-1.9009e-05
1.18431e-05
-1.99184e-05
1.16979e-05
-2.08159e-05
1.15451e-05
-2.1701e-05
1.13847e-05
-2.2573e-05
1.12169e-05
-2.34314e-05
1.10415e-05
-2.42755e-05
1.08586e-05
-2.51046e-05
1.06683e-05
-2.59183e-05
1.04706e-05
-2.67157e-05
1.02656e-05
-2.74963e-05
1.00534e-05
-2.82594e-05
9.83391e-06
-2.90043e-05
9.60739e-06
-2.97303e-05
9.3739e-06
-3.04367e-05
9.1336e-06
-3.11227e-05
8.88665e-06
-3.17875e-05
8.63324e-06
-3.24303e-05
8.3736e-06
-3.30502e-05
8.10799e-06
-3.36463e-05
7.83671e-06
-3.42175e-05
7.5601e-06
-3.47629e-05
7.27855e-06
-3.52811e-05
6.9925e-06
-3.57709e-05
6.70242e-06
-3.62308e-05
6.40883e-06
-3.66592e-05
6.11229e-06
-3.70541e-05
5.81336e-06
-3.74134e-05
5.51262e-06
-3.77346e-05
5.2106e-06
-3.8015e-05
4.90773e-06
-3.82515e-05
4.6043e-06
-3.84403e-05
4.30035e-06
-3.85774e-05
3.99554e-06
-3.86586e-05
3.68902e-06
-3.86791e-05
3.37928e-06
-3.86341e-05
3.06393e-06
-3.85191e-05
2.73954e-06
-3.83303e-05
2.40153e-06
-3.80651e-05
2.04413e-06
-3.77226e-05
1.66054e-06
1.24332e-06
-3.73047e-05
-4.7288e-07
6.50686e-06
-1.34425e-06
1.19971e-05
-2.33777e-06
1.36863e-05
-3.35892e-06
1.407e-05
-4.38368e-06
1.41203e-05
-5.4069e-06
1.40987e-05
-6.42726e-06
1.40588e-05
-7.44408e-06
1.40092e-05
-8.45675e-06
1.39512e-05
-9.46469e-06
1.3885e-05
-1.04673e-05
1.38106e-05
-1.1464e-05
1.3728e-05
-1.24542e-05
1.36371e-05
-1.34374e-05
1.3538e-05
-1.44128e-05
1.34308e-05
-1.538e-05
1.33153e-05
-1.63383e-05
1.31916e-05
-1.72872e-05
1.30597e-05
-1.8226e-05
1.29196e-05
-1.91542e-05
1.27713e-05
-2.00711e-05
1.26148e-05
-2.09762e-05
1.24502e-05
-2.18688e-05
1.22773e-05
-2.27483e-05
1.20964e-05
-2.36142e-05
1.19073e-05
-2.44657e-05
1.17101e-05
-2.53023e-05
1.15049e-05
-2.61232e-05
1.12916e-05
-2.69279e-05
1.10703e-05
-2.77157e-05
1.08411e-05
-2.84859e-05
1.06041e-05
-2.92377e-05
1.03592e-05
-2.99705e-05
1.01067e-05
-3.06835e-05
9.84661e-06
-3.13759e-05
9.57907e-06
-3.20469e-05
9.30426e-06
-3.26957e-05
9.02235e-06
-3.33213e-05
8.73355e-06
-3.39227e-05
8.43811e-06
-3.44989e-05
8.13629e-06
-3.50487e-05
7.8284e-06
-3.5571e-05
7.51476e-06
-3.60643e-05
7.19573e-06
-3.65271e-05
6.87168e-06
-3.69578e-05
6.54301e-06
-3.73546e-05
6.21008e-06
-3.77152e-05
5.87324e-06
-3.80374e-05
5.53277e-06
-3.83185e-05
5.18883e-06
-3.85556e-05
4.8414e-06
-3.87454e-05
4.49023e-06
-3.88846e-05
4.13471e-06
-3.89694e-05
3.77377e-06
-3.89959e-05
3.4058e-06
-3.89604e-05
3.02847e-06
-3.88596e-05
2.6387e-06
-3.86906e-05
2.23255e-06
-3.84518e-05
1.80533e-06
-3.8143e-05
1.35171e-06
8.66092e-07
-3.77657e-05
-4.75601e-07
6.98246e-06
-1.35343e-06
1.28749e-05
-2.35475e-06
1.46877e-05
-3.38404e-06
1.50993e-05
-4.417e-06
1.51533e-05
-5.44844e-06
1.51302e-05
-6.47701e-06
1.50873e-05
-7.50205e-06
1.50342e-05
-8.52293e-06
1.49721e-05
-9.53909e-06
1.49012e-05
-1.05499e-05
1.48214e-05
-1.15549e-05
1.47329e-05
-1.25533e-05
1.46355e-05
-1.35446e-05
1.45294e-05
-1.45283e-05
1.44144e-05
-1.55037e-05
1.42907e-05
-1.64702e-05
1.41581e-05
-1.74273e-05
1.40167e-05
-1.83743e-05
1.38666e-05
-1.93106e-05
1.37076e-05
-2.02357e-05
1.35399e-05
-2.1149e-05
1.33634e-05
-2.20497e-05
1.31781e-05
-2.29374e-05
1.29841e-05
-2.38113e-05
1.27813e-05
-2.46709e-05
1.25697e-05
-2.55155e-05
1.23495e-05
-2.63444e-05
1.21205e-05
-2.7157e-05
1.1883e-05
-2.79527e-05
1.16368e-05
-2.87306e-05
1.1382e-05
-2.94901e-05
1.11188e-05
-3.02305e-05
1.08471e-05
-3.09509e-05
1.0567e-05
-3.16506e-05
1.02788e-05
-3.23287e-05
9.98236e-06
-3.29843e-05
9.67797e-06
-3.36165e-05
9.36575e-06
-3.42243e-05
9.04588e-06
-3.48066e-05
8.71855e-06
-3.53621e-05
8.38398e-06
-3.58898e-05
8.0424e-06
-3.63881e-05
7.69405e-06
-3.68556e-05
7.33917e-06
-3.72906e-05
6.978e-06
-3.76912e-05
6.61074e-06
-3.80555e-05
6.23755e-06
-3.83813e-05
5.8585e-06
-3.8666e-05
5.47352e-06
-3.8907e-05
5.0824e-06
-3.91014e-05
4.68466e-06
-3.92462e-05
4.27954e-06
-3.93383e-05
3.86585e-06
-3.93745e-05
3.442e-06
-3.93519e-05
3.00581e-06
-3.92677e-05
2.55456e-06
-3.91201e-05
2.08492e-06
-3.89078e-05
1.59309e-06
-3.8631e-05
1.0749e-06
5.26184e-07
-3.82911e-05
-4.78511e-07
7.46097e-06
-1.36326e-06
1.37597e-05
-2.37295e-06
1.56973e-05
-3.41096e-06
1.61373e-05
-4.45271e-06
1.6195e-05
-5.49294e-06
1.61704e-05
-6.53032e-06
1.61247e-05
-7.56416e-06
1.60681e-05
-8.59385e-06
1.60018e-05
-9.61881e-06
1.59261e-05
-1.06385e-05
1.58411e-05
-1.16522e-05
1.57466e-05
-1.26594e-05
1.56428e-05
-1.36596e-05
1.55295e-05
-1.4652e-05
1.54069e-05
-1.56362e-05
1.52749e-05
-1.66115e-05
1.51334e-05
-1.75774e-05
1.49826e-05
-1.85332e-05
1.48224e-05
-1.94783e-05
1.46528e-05
-2.04122e-05
1.44738e-05
-2.13342e-05
1.42854e-05
-2.22437e-05
1.40876e-05
-2.31401e-05
1.38805e-05
-2.40228e-05
1.36639e-05
-2.48911e-05
1.3438e-05
-2.57443e-05
1.32027e-05
-2.65819e-05
1.29581e-05
-2.74032e-05
1.27042e-05
-2.82074e-05
1.2441e-05
-2.89938e-05
1.21684e-05
-2.97617e-05
1.18867e-05
-3.05104e-05
1.15958e-05
-3.12391e-05
1.12957e-05
-3.19469e-05
1.09866e-05
-3.2633e-05
1.06684e-05
-3.32964e-05
1.03414e-05
-3.39363e-05
1.00056e-05
-3.45515e-05
9.6611e-06
-3.5141e-05
9.30804e-06
-3.57036e-05
8.94657e-06
-3.6238e-05
8.57681e-06
-3.67428e-05
8.1989e-06
-3.72166e-05
7.81296e-06
-3.76577e-05
7.4191e-06
-3.80644e-05
7.01738e-06
-3.84346e-05
6.60778e-06
-3.87663e-05
6.19022e-06
-3.90573e-05
5.76447e-06
-3.9305e-05
5.33015e-06
-3.9507e-05
4.88666e-06
-3.96606e-05
4.43312e-06
-3.97631e-05
3.96835e-06
-3.98119e-05
3.49079e-06
-3.98045e-05
2.99848e-06
-3.9739e-05
2.48903e-06
-3.96138e-05
1.95968e-06
-3.9428e-05
1.40733e-06
-3.91818e-05
8.28704e-07
2.20748e-07
-3.88764e-05
-4.81607e-07
7.94258e-06
-1.37374e-06
1.46518e-05
-2.39235e-06
1.67159e-05
-3.43966e-06
1.71846e-05
-4.49079e-06
1.72461e-05
-5.54041e-06
1.722e-05
-6.58718e-06
1.71715e-05
-7.63041e-06
1.71113e-05
-8.6695e-06
1.70409e-05
-9.70385e-06
1.69605e-05
-1.07329e-05
1.68701e-05
-1.1756e-05
1.67698e-05
-1.27726e-05
1.66594e-05
-1.37822e-05
1.65391e-05
-1.4784e-05
1.64087e-05
-1.57776e-05
1.62684e-05
-1.67623e-05
1.61181e-05
-1.77376e-05
1.59578e-05
-1.87028e-05
1.57876e-05
-1.96573e-05
1.56073e-05
-2.06005e-05
1.5417e-05
-2.15319e-05
1.52168e-05
-2.24508e-05
1.50065e-05
-2.33566e-05
1.47862e-05
-2.42486e-05
1.4556e-05
-2.51263e-05
1.43157e-05
-2.59889e-05
1.40654e-05
-2.68358e-05
1.38051e-05
-2.76663e-05
1.35347e-05
-2.84798e-05
1.32544e-05
-2.92755e-05
1.29641e-05
-3.00526e-05
1.26638e-05
-3.08104e-05
1.23536e-05
-3.15481e-05
1.20334e-05
-3.22649e-05
1.17033e-05
-3.29599e-05
1.13634e-05
-3.36321e-05
1.10136e-05
-3.42806e-05
1.06541e-05
-3.49044e-05
1.02849e-05
-3.55023e-05
9.90595e-06
-3.60732e-05
9.51744e-06
-3.66158e-05
9.11937e-06
-3.71286e-05
8.71179e-06
-3.76104e-05
8.2947e-06
-3.80594e-05
7.8681e-06
-3.84739e-05
7.43192e-06
-3.88522e-05
6.98603e-06
-3.91922e-05
6.5302e-06
-3.94918e-05
6.06409e-06
-3.97488e-05
5.58719e-06
-3.9961e-05
5.09883e-06
-4.0126e-05
4.59809e-06
-4.02414e-05
4.08381e-06
-4.03052e-05
3.55452e-06
-4.03152e-05
3.00847e-06
-4.02697e-05
2.44359e-06
-4.01676e-05
1.85758e-06
-4.00082e-05
1.24795e-06
-3.97917e-05
6.12202e-07
-5.27784e-08
-3.95182e-05
-4.84887e-07
8.42746e-06
-1.38487e-06
1.55518e-05
-2.41296e-06
1.7744e-05
-3.47016e-06
1.82418e-05
-4.53125e-06
1.83072e-05
-5.59084e-06
1.82796e-05
-6.64759e-06
1.82282e-05
-7.70081e-06
1.81645e-05
-8.74988e-06
1.809e-05
-9.79421e-06
1.80048e-05
-1.08332e-05
1.79091e-05
-1.18663e-05
1.78029e-05
-1.28929e-05
1.7686e-05
-1.39125e-05
1.75586e-05
-1.49243e-05
1.74206e-05
-1.59279e-05
1.7272e-05
-1.69226e-05
1.71128e-05
-1.79078e-05
1.69431e-05
-1.8883e-05
1.67628e-05
-1.98475e-05
1.65718e-05
-2.08008e-05
1.63703e-05
-2.17421e-05
1.61582e-05
-2.2671e-05
1.59354e-05
-2.35868e-05
1.5702e-05
-2.44889e-05
1.5458e-05
-2.53765e-05
1.52033e-05
-2.62491e-05
1.4938e-05
-2.71061e-05
1.4662e-05
-2.79466e-05
1.43753e-05
-2.877e-05
1.40779e-05
-2.95757e-05
1.37697e-05
-3.03628e-05
1.34509e-05
-3.11305e-05
1.31213e-05
-3.18781e-05
1.2781e-05
-3.26048e-05
1.243e-05
-3.33096e-05
1.20682e-05
-3.39916e-05
1.16956e-05
-3.46498e-05
1.13123e-05
-3.52832e-05
1.09183e-05
-3.58907e-05
1.05135e-05
-3.64712e-05
1.00979e-05
-3.70233e-05
9.67146e-06
-3.75457e-05
9.23419e-06
-3.80369e-05
8.78598e-06
-3.84956e-05
8.32671e-06
-3.89199e-05
7.85622e-06
-3.93081e-05
7.37427e-06
-3.96584e-05
6.88053e-06
-3.99689e-05
6.37457e-06
-4.02375e-05
5.8558e-06
-4.04622e-05
5.3235e-06
-4.06408e-05
4.77675e-06
-4.07715e-05
4.21442e-06
-4.08521e-05
3.63516e-06
-4.0881e-05
3.03742e-06
-4.08569e-05
2.41942e-06
-4.07785e-05
1.77923e-06
-4.06454e-05
1.11486e-06
-4.04577e-05
4.24443e-07
-2.95437e-07
-4.0215e-05
-4.88349e-07
8.91581e-06
-1.39663e-06
1.64601e-05
-2.43476e-06
1.87822e-05
-3.50243e-06
1.93094e-05
-4.57408e-06
1.93789e-05
-5.64424e-06
1.93498e-05
-6.71156e-06
1.92956e-05
-7.77534e-06
1.92283e-05
-8.83498e-06
1.91496e-05
-9.88989e-06
1.90597e-05
-1.09395e-05
1.89587e-05
-1.19832e-05
1.88465e-05
-1.30203e-05
1.87232e-05
-1.40504e-05
1.85887e-05
-1.50729e-05
1.8443e-05
-1.6087e-05
1.82861e-05
-1.70923e-05
1.81181e-05
-1.80881e-05
1.79389e-05
-1.90739e-05
1.77485e-05
-2.0049e-05
1.75469e-05
-2.10129e-05
1.73342e-05
-2.19649e-05
1.71102e-05
-2.29044e-05
1.68749e-05
-2.38308e-05
1.66284e-05
-2.47435e-05
1.63707e-05
-2.56418e-05
1.61016e-05
-2.65251e-05
1.58213e-05
-2.73927e-05
1.55296e-05
-2.82439e-05
1.52265e-05
-2.90781e-05
1.4912e-05
-2.98944e-05
1.45861e-05
-3.06923e-05
1.42487e-05
-3.14707e-05
1.38998e-05
-3.22291e-05
1.35394e-05
-3.29665e-05
1.31674e-05
-3.3682e-05
1.27837e-05
-3.43748e-05
1.23884e-05
-3.50438e-05
1.19813e-05
-3.5688e-05
1.15625e-05
-3.63063e-05
1.11318e-05
-3.68975e-05
1.06891e-05
-3.74605e-05
1.02344e-05