/*--------------------------------*- C++ -*----------------------------------*\
  =========                 |
  \\      /  F ield         | OpenFOAM: The Open Source CFD Toolbox
   \\    /   O peration     | Website:  https://openfoam.org
    \\  /    A nd           | Version:  8
     \\/     M anipulation  |
\*---------------------------------------------------------------------------*/
FoamFile
{
    version     2.0;
    format      ascii;
    class       volVectorField;
    location    "59";
    object      U;
}
// * * * * * * * * * * * * * * * * * * * * * * * * * * * * * * * * * * * * * //

dimensions      [0 1 -1 0 0 0 0];

internalField   nonuniform List<vector> 
464
(
(-0.000172381 0.000170639 0)
(-0.000575857 0.000192026 0)
(-0.00100264 0.000186258 0)
(-0.00139757 0.000175518 0)
(-0.00177868 0.000159221 0)
(-0.00213428 0.000136436 0)
(-0.00244182 0.000107143 0)
(-0.00274698 6.81881e-05 0)
(-0.00292563 2.31586e-05 0)
(-0.00320252 -4.20153e-05 0)
(-0.00315239 -9.2951e-05 0)
(-0.00351046 -1.45692e-05 0)
(-0.000200414 0.000577952 0)
(-0.00066572 0.000647772 0)
(-0.00115692 0.00063367 0)
(-0.00161342 0.000610065 0)
(-0.00205477 0.000579137 0)
(-0.00246645 0.000540996 0)
(-0.0028266 0.000499806 0)
(-0.00317938 0.000444244 0)
(-0.00340456 0.000408685 0)
(-0.00372665 0.000319923 0)
(-0.00374488 0.000346777 0)
(-0.00415379 0.000180709 0)
(-0.000205796 0.0010262 0)
(-0.000683864 0.00114581 0)
(-0.00118651 0.00111576 0)
(-0.00164988 0.00106307 0)
(-0.00209571 0.000989848 0)
(-0.00250624 0.000895647 0)
(-0.00286887 0.000784855 0)
(-0.00320087 0.000645339 0)
(-0.00343261 0.000515834 0)
(-0.00367165 0.000322723 0)
(-0.00371086 0.000250114 0)
(-0.00381199 -9.75708e-06 0)
(-0.000215209 0.00147414 0)
(-0.000717812 0.00164869 0)
(-0.0012512 0.00161188 0)
(-0.00174899 0.00154956 0)
(-0.00223409 0.00146313 0)
(-0.00268527 0.00135388 0)
(-0.0030924 0.00122268 0)
(-0.00346483 0.00106237 0)
(-0.00374433 0.000894263 0)
(-0.00400975 0.000664768 0)
(-0.00409311 0.000481137 0)
(-0.00417314 0.000145668 0)
(-0.000222365 0.00193792 0)
(-0.000743548 0.00216456 0)
(-0.00129224 0.00210759 0)
(-0.00179892 0.00200955 0)
(-0.00229154 0.00187599 0)
(-0.00274669 0.00170645 0)
(-0.00316032 0.00150199 0)
(-0.0035289 0.00125647 0)
(-0.00383001 0.000986657 0)
(-0.00408437 0.000650936 0)
(-0.00422971 0.000337751 0)
(-0.004329 -0.000112642 0)
(-0.000241647 0.00247354 0)
(-0.000809389 0.00277157 0)
(-0.00141477 0.00271004 0)
(-0.00198106 0.00261608 0)
(-0.00253779 0.00247355 0)
(-0.00306012 0.0022968 0)
(-0.00354363 0.00207723 0)
(-0.00398153 0.00181403 0)
(-0.00435163 0.00151031 0)
(-0.00465985 0.00114642 0)
(-0.00485775 0.000757938 0)
(-0.004943 0.000248137 0)
(-0.000243687 0.00291937 0)
(-0.000836291 0.00327051 0)
(-0.00145767 0.00319192 0)
(-0.00203493 0.00304786 0)
(-0.00260994 0.00285979 0)
(-0.00314168 0.00261615 0)
(-0.00364136 0.00232433 0)
(-0.0040936 0.00197225 0)
(-0.00449533 0.00156652 0)
(-0.00483431 0.00108193 0)
(-0.00512618 0.000560617 0)
(-0.00530592 -0.000112252 0)
(-0.000282221 0.00364805 0)
(-0.000940744 0.00410892 0)
(-0.00165052 0.00400424 0)
(-0.0023144 0.00390561 0)
(-0.00297105 0.00368798 0)
(-0.00359776 0.00346069 0)
(-0.00419038 0.00315237 0)
(-0.00474282 0.00279107 0)
(-0.00524576 0.00237711 0)
(-0.00566927 0.00186092 0)
(-0.00605377 0.00135865 0)
(-0.00625206 0.000586703 0)
(-0.000253534 0.00400036 0)
(-0.000964526 0.00449258 0)
(-0.00167395 0.00440968 0)
(-0.00234952 0.00420531 0)
(-0.00305272 0.0039877 0)
(-0.00367411 0.00366786 0)
(-0.00430703 0.00331693 0)
(-0.00486404 0.00286336 0)
(-0.00541984 0.00237396 0)
(-0.00584784 0.00171867 0)
(-0.00639406 0.00109348 0)
(-0.00664057 0.000124347 0)
(-0.000348795 0.00503778 0)
(-0.0011065 0.00575052 0)
(-0.00195701 0.00554974 0)
(-0.00273936 0.00552812 0)
(-0.00351208 0.0051723 0)
(-0.00427343 0.0049493 0)
(-0.00500083 0.00452082 0)
(-0.00569353 0.00407951 0)
(-0.00639829 0.00359253 0)
(-0.00695914 0.0029138 0)
(-0.00765207 0.00240636 0)
(-0.00800913 0.00134512 0)
(-0.000194974 0.00522829 0)
(-0.00112518 0.00584488 0)
(-0.00190957 0.00582069 0)
(-0.00272227 0.00547655 0)
(-0.00362703 0.00530828 0)
(-0.0043189 0.00486779 0)
(-0.00516937 0.00454468 0)
(-0.00578318 0.00396505 0)
(-0.00657386 0.00350755 0)
(-0.00702469 0.0026629 0)
(-0.00794618 0.00210767 0)
(-0.00821197 0.000790655 0)
(-0.000503253 0.00661637 0)
(-0.00130336 0.00780838 0)
(-0.00235549 0.0073788 0)
(-0.00325855 0.00763178 0)
(-0.0041275 0.00698809 0)
(-0.0050465 0.00686649 0)
(-0.00591347 0.00622773 0)
(-0.00674562 0.00574297 0)
(-0.00771437 0.00519001 0)
(-0.00837988 0.00438744 0)
(-0.00953463 0.00400002 0)
(-0.0099977 0.00272649 0)
(0.000129214 0.00672273 0)
(-0.00125751 0.00730847 0)
(-0.00208958 0.00747725 0)
(-0.0031008 0.00680875 0)
(-0.00438538 0.00681972 0)
(-0.00506719 0.00619409 0)
(-0.00628211 0.00601346 0)
(-0.00680579 0.00529011 0)
(-0.00790994 0.00499995 0)
(-0.00819877 0.00397973 0)
(-0.00957601 0.00371188 0)
(-0.00963669 0.00211618 0)
(-0.00100379 0.00808537 0)
(-0.00163801 0.0105098 0)
(-0.00290997 0.0095225 0)
(-0.00392968 0.0104976 0)
(-0.00475027 0.00923914 0)
(-0.00586945 0.00932306 0)
(-0.00682956 0.00827994 0)
(-0.00778428 0.00775575 0)
(-0.00904418 0.00708104 0)
(-0.00970619 0.0062009 0)
(-0.0114216 0.00603698 0)
(-0.0117734 0.00476105 0)
(0.00148851 0.00898317 0)
(-0.000900736 0.00869374 0)
(-0.00207459 0.00939666 0)
(-0.00335412 0.00801834 0)
(-0.00556413 0.00840214 0)
(-0.00600746 0.00760345 0)
(-0.00784053 0.0076414 0)
(-0.00797992 0.0068133 0)
(-0.00944027 0.00675765 0)
(-0.00921964 0.00562578 0)
(-0.0109852 0.00577533 0)
(-0.010251 0.00412971 0)
(-0.00278617 0.00786062 0)
(-0.00263733 0.014683 0)
(-0.00352324 0.0123312 0)
(-0.00490433 0.0147932 0)
(-0.00515254 0.0122532 0)
(-0.00665929 0.0123998 0)
(-0.00763083 0.0106495 0)
(-0.00870623 0.00990881 0)
(-0.01025 0.0089688 0)
(-0.0107447 0.00797158 0)
(-0.0129532 0.00786618 0)
(-0.0127603 0.00693028 0)
(0.00433369 0.0140804 0)
(0.000922975 0.00887595 0)
(-0.00340965 0.0112248 0)
(-0.00405132 0.00878651 0)
(-0.0083562 0.0096669 0)
(-0.00770175 0.00916411 0)
(-0.0103791 0.00930715 0)
(-0.00961625 0.00850546 0)
(-0.0113502 0.00858416 0)
(-0.0102933 0.00737448 0)
(-0.0120463 0.00776953 0)
(-0.00982211 0.00632604 0)
(0.00529095 0.00243639 0)
(0.00245212 0.0231597 0)
(0.00645197 0.0176673 0)
(-0.000835536 0.0208899 0)
(-0.00130154 0.0163659 0)
(-0.00495637 0.0155334 0)
(-0.00706753 0.0130651 0)
(-0.00887025 0.0116492 0)
(-0.0110725 0.0104043 0)
(-0.0115518 0.00905457 0)
(-0.0140113 0.00826043 0)
(-0.0132164 0.00800325 0)
(-0.0379348 0.00677287 0)
(-0.0211532 0.00719277 0)
(-0.0430638 0.013816 0)
(-0.0285347 0.0153565 0)
(-0.0360295 0.0129844 0)
(-0.0264509 0.0137548 0)
(-0.0281871 0.0126797 0)
(-0.0219498 0.0113606 0)
(-0.0215713 0.0109738 0)
(-0.016694 0.00920538 0)
(-0.0159205 0.00935453 0)
(-0.0110793 0.00794585 0)
(0.0247907 0.0594529 0)
(0.0434891 0.0304284 0)
(0.0601086 0.0247353 0)
(0.0821396 0.0160283 0)
(0.0912296 0.0143612 0)
(0.109643 0.00925391 0)
(0.112522 0.00891988 0)
(0.132409 0.00594938 0)
(0.128034 0.00564128 0)
(0.150192 0.00435076 0)
(0.140112 0.00259635 0)
(0.163012 0.00433513 0)
(-0.00323572 0.00190707 0)
(-0.00231607 0.00103688 0)
(-0.00206123 0.000198903 0)
(-0.00163728 -0.000280352 0)
(-0.00133666 -0.000691609 0)
(-0.000952188 -0.000966886 0)
(-0.00056789 -0.00114983 0)
(-0.000170719 -0.00110996 0)
(-0.00368249 0.000614281 0)
(-0.0026489 0.000128728 0)
(-0.00235561 -0.000244715 0)
(-0.00185889 -0.000686768 0)
(-0.00151668 -0.00102863 0)
(-0.00108473 -0.00132984 0)
(-0.000646129 -0.00151621 0)
(-0.000196058 -0.00144858 0)
(-0.00361238 0.000258118 0)
(-0.0031711 -0.00027569 0)
(-0.0028759 -0.000651561 0)
(-0.00242029 -0.00115352 0)
(-0.00197896 -0.00154408 0)
(-0.00144646 -0.00190072 0)
(-0.000860387 -0.00211927 0)
(-0.000269522 -0.00202018 0)
(-0.00396189 -3.33856e-05 0)
(-0.00355527 -0.000541692 0)
(-0.00323435 -0.000954012 0)
(-0.00275152 -0.00149899 0)
(-0.00226595 -0.00191548 0)
(-0.00167181 -0.00236141 0)
(-0.000997947 -0.00260468 0)
(-0.000318177 -0.00248814 0)
(-0.00429839 -0.000431232 0)
(-0.00409096 -0.0010362 0)
(-0.00383295 -0.00155167 0)
(-0.00338061 -0.00221402 0)
(-0.00284033 -0.00272621 0)
(-0.00214865 -0.00329072 0)
(-0.00128372 -0.00359213 0)
(-0.000435918 -0.00344817 0)
(-0.00488562 -0.000220061 0)
(-0.00467641 -0.000952864 0)
(-0.00441294 -0.00151859 0)
(-0.00392909 -0.00241594 0)
(-0.00334477 -0.0029644 0)
(-0.00256047 -0.00381521 0)
(-0.00154532 -0.00414699 0)
(-0.000544271 -0.00407779 0)
(-0.00549723 -0.000745934 0)
(-0.00538878 -0.00164764 0)
(-0.0052907 -0.00237925 0)
(-0.0048259 -0.00349 0)
(-0.0042338 -0.00420617 0)
(-0.00335497 -0.00531567 0)
(-0.00202354 -0.00576027 0)
(-0.000819364 -0.00572552 0)
(-0.0064211 2.28493e-05 0)
(-0.00631696 -0.0011415 0)
(-0.00625399 -0.00180864 0)
(-0.00576941 -0.00340771 0)
(-0.00517017 -0.00411092 0)
(-0.00416453 -0.00590603 0)
(-0.00258777 -0.00638874 0)
(-0.00110754 -0.00673197 0)
(-0.00721516 -0.000654647 0)
(-0.00722174 -0.00207062 0)
(-0.00753581 -0.00297563 0)
(-0.0071333 -0.00493519 0)
(-0.00670431 -0.00592078 0)
(-0.00568411 -0.00828856 0)
(-0.0036052 -0.00901133 0)
(-0.0018778 -0.00973039 0)
(-0.00861407 0.000832196 0)
(-0.00865936 -0.000867625 0)
(-0.00910747 -0.00146183 0)
(-0.00875902 -0.00421837 0)
(-0.00850073 -0.00501019 0)
(-0.00739639 -0.00889295 0)
(-0.00506227 -0.00967834 0)
(-0.00283284 -0.0119533 0)
(-0.00939724 0.000142422 0)
(-0.00952191 -0.00198996 0)
(-0.0108194 -0.0028218 0)
(-0.0107111 -0.00613874 0)
(-0.0112562 -0.00733052 0)
(-0.0105219 -0.0124072 0)
(-0.00785154 -0.0137753 0)
(-0.00543695 -0.0181622 0)
(-0.0113949 0.00256228 0)
(-0.0116691 0.000368737 0)
(-0.0132256 0.000347818 0)
(-0.0133839 -0.00389582 0)
(-0.0146388 -0.0042892 0)
(-0.0143536 -0.0122831 0)
(-0.0123705 -0.0137609 0)
(-0.00972082 -0.0248897 0)
(-0.0116856 0.00198667 0)
(-0.0117282 -0.000712014 0)
(-0.0149099 -0.000738992 0)
(-0.0154116 -0.00566697 0)
(-0.0192154 -0.00615644 0)
(-0.0206806 -0.0158897 0)
(-0.0211507 -0.01836 0)
(-0.0210746 -0.0411718 0)
(-0.0142545 0.00538365 0)
(-0.0144599 0.00315658 0)
(-0.0181875 0.00490748 0)
(-0.018942 -9.55247e-05 0)
(-0.0245733 0.00235599 0)
(-0.0277433 -0.0107989 0)
(-0.0336724 -0.0111687 0)
(-0.035223 -0.0665419 0)
(-0.0132066 0.00487889 0)
(-0.0120674 0.00225806 0)
(-0.0178357 0.00426987 0)
(-0.0176877 -0.000609235 0)
(-0.0288272 0.00363226 0)
(-0.03164 -0.00914306 0)
(-0.0458456 -0.00994061 0)
(-0.0318644 -0.113398 0)
(-0.016233 0.00827306 0)
(-0.0151435 0.00731238 0)
(-0.0213369 0.0121381 0)
(-0.0189376 0.00964399 0)
(-0.0313903 0.0188063 0)
(-0.023255 0.00374441 0)
(-0.0455369 -0.0074038 0)
(0.00492473 -0.146032 0)
(-0.0130125 0.0074692 0)
(-0.00790342 0.00596071 0)
(-0.0154749 0.008627 0)
(-0.00787886 0.00731435 0)
(-0.0253344 0.00971918 0)
(-0.0163447 0.00152559 0)
(-0.0441196 -0.0334247 0)
(0.0270311 -0.1559 0)
(-0.0168153 0.00757885 0)
(-0.0142829 0.00942656 0)
(-0.0203463 0.0141179 0)
(-0.0154656 0.0184748 0)
(-0.0253736 0.0302957 0)
(-0.0100772 0.0198428 0)
(-0.0300446 -0.048815 0)
(0.0237072 -0.160852 0)
(-0.011219 0.00859807 0)
(-0.00140686 0.00815372 0)
(-0.00645459 0.00966105 0)
(0.0184756 0.0108456 0)
(0.0128874 0.00362842 0)
(0.0528089 0.00373567 0)
(0.0506008 -0.0682559 0)
(0.0433248 -0.169204 0)
(0.151127 -0.00157659 0)
(0.171253 0.0046717 0)
(0.161751 -0.00417436 0)
(0.178596 -0.00159047 0)
(0.168084 -0.00166262 0)
(0.180853 -0.0185056 0)
(0.149734 -0.0290211 0)
(0.0898311 -0.0587081 0)
(-2.15888e-05 -3.16091e-05 0)
(-6.84319e-05 -3.53605e-05 0)
(-0.000103687 -3.86539e-05 0)
(-0.000119767 -4.2733e-05 0)
(-0.00011718 -4.49239e-05 0)
(-9.64333e-05 -4.6702e-05 0)
(-6.09437e-05 -4.7509e-05 0)
(-1.87659e-05 -4.4039e-05 0)
(-2.62334e-05 0.00012343 0)
(-8.1587e-05 0.000120507 0)
(-0.000122788 9.06273e-05 0)
(-0.00013958 5.80508e-05 0)
(-0.000134366 2.16475e-05 0)
(-0.000110038 -7.35122e-06 0)
(-6.92383e-05 -2.94133e-05 0)
(-2.14108e-05 -3.37512e-05 0)
(-3.96605e-05 6.92852e-05 0)
(-0.000122258 5.59774e-05 0)
(-0.000178751 1.40734e-05 0)
(-0.00020273 -3.30028e-05 0)
(-0.000196205 -7.85438e-05 0)
(-0.000158933 -0.000115546 0)
(-0.000100032 -0.000142149 0)
(-3.07176e-05 -0.000139377 0)
(-4.95858e-05 0.000296857 0)
(-0.000147479 0.000272704 0)
(-0.000212761 0.000177694 0)
(-0.000232851 8.1719e-05 0)
(-0.000217582 -1.8273e-05 0)
(-0.000174764 -9.40461e-05 0)
(-0.000108642 -0.000149987 0)
(-3.34005e-05 -0.000155049 0)
(-9.55666e-05 0.000247217 0)
(-0.000274314 0.000203311 0)
(-0.0003709 8.60791e-05 0)
(-0.000398585 -3.34634e-05 0)
(-0.000371812 -0.000147002 0)
(-0.000291259 -0.000235481 0)
(-0.000180836 -0.000298625 0)
(-5.48706e-05 -0.000294367 0)
(-0.00012382 0.000694247 0)
(-0.000340154 0.000576951 0)
(-0.000451145 0.00031571 0)
(-0.000466286 9.39833e-05 0)
(-0.000420087 -0.000116329 0)
(-0.000328047 -0.000264689 0)
(-0.000201157 -0.000369726 0)
(-6.13029e-05 -0.000370964 0)
(-0.000290083 0.000671424 0)
(-0.00073164 0.000495919 0)
(-0.000856203 0.000187053 0)
(-0.000829688 -7.05554e-05 0)
(-0.000729706 -0.000306757 0)
(-0.000545775 -0.000475983 0)
(-0.00033232 -0.00059406 0)
(-9.97638e-05 -0.00058133 0)
(-0.000412394 0.00178099 0)
(-0.000908694 0.00119631 0)
(-0.00102441 0.000434093 0)
(-0.0009615 -1.46961e-05 0)
(-0.000827055 -0.000381491 0)
(-0.000619058 -0.00062448 0)
(-0.000373981 -0.000785814 0)
(-0.000112932 -0.000767929 0)
)
;

boundaryField
{
    movingWall
    {
        type            fixedValue;
        value           uniform (1 0 0);
    }
    fixedWalls
    {
        type            noSlip;
    }
    frontAndBack
    {
        type            empty;
    }
}


// ************************************************************************* //
