/*--------------------------------*- C++ -*----------------------------------*\
  =========                 |
  \\      /  F ield         | OpenFOAM: The Open Source CFD Toolbox
   \\    /   O peration     | Website:  https://openfoam.org
    \\  /    A nd           | Version:  8
     \\/     M anipulation  |
\*---------------------------------------------------------------------------*/
FoamFile
{
    version     2.0;
    format      ascii;
    class       volScalarField;
    location    "88";
    object      p;
}
// * * * * * * * * * * * * * * * * * * * * * * * * * * * * * * * * * * * * * //

dimensions      [0 2 -2 0 0 0 0];

internalField   nonuniform List<scalar> 
400
(
2.34092e-15
2.53745e-15
2.38744e-15
2.15457e-15
1.88273e-15
1.81168e-15
1.64141e-15
1.33096e-15
9.63146e-16
7.35016e-16
6.38485e-16
5.16362e-16
5.60167e-16
5.80287e-16
6.30589e-16
6.80452e-16
7.2811e-16
5.157e-16
2.73939e-16
7.29106e-17
2.13003e-15
2.56534e-15
2.42734e-15
2.22094e-15
1.87032e-15
1.73267e-15
1.57397e-15
1.3498e-15
1.06299e-15
8.34321e-16
6.56973e-16
6.64843e-16
6.88163e-16
5.339e-16
6.43424e-16
6.59879e-16
7.26581e-16
4.97738e-16
3.88689e-16
9.73275e-17
2.11555e-15
2.41065e-15
2.45451e-15
2.16971e-15
1.89929e-15
1.6399e-15
1.52287e-15
1.44935e-15
1.1512e-15
9.38346e-16
8.95349e-16
8.42576e-16
8.20217e-16
4.57532e-16
5.52258e-16
8.29352e-16
8.72322e-16
4.1037e-16
3.5479e-16
6.0097e-17
2.43037e-15
2.33424e-15
2.19228e-15
2.12338e-15
1.93438e-15
1.77948e-15
1.56217e-15
1.46244e-15
1.16986e-15
1.0767e-15
9.93669e-16
7.87678e-16
8.68636e-16
6.41666e-16
6.89877e-16
7.34541e-16
7.36429e-16
5.26e-16
3.9191e-16
1.15254e-16
2.5412e-15
2.18626e-15
2.18085e-15
2.13011e-15
1.95905e-15
1.83919e-15
1.72593e-15
1.43858e-15
1.13321e-15
1.08162e-15
1.16488e-15
9.03763e-16
8.0217e-16
6.12854e-16
7.18428e-16
6.42688e-16
5.84164e-16
6.88111e-16
4.2561e-16
1.37026e-16
2.64608e-15
2.19089e-15
2.0627e-15
2.2089e-15
2.11209e-15
1.94351e-15
1.7482e-15
1.51235e-15
1.2321e-15
1.14411e-15
1.28037e-15
9.92642e-16
8.43465e-16
7.10765e-16
5.04838e-16
5.00681e-16
7.44308e-16
8.25107e-16
4.92796e-16
1.45483e-16
2.54416e-15
2.09366e-15
2.03714e-15
2.21243e-15
2.24648e-15
2.09432e-15
1.91909e-15
1.61144e-15
1.33091e-15
1.38329e-15
1.44669e-15
9.79179e-16
8.43678e-16
7.33155e-16
5.77899e-16
4.72044e-16
5.47534e-16
8.05869e-16
5.10661e-16
1.13046e-16
2.23185e-15
2.1333e-15
2.16443e-15
2.20694e-15
2.20914e-15
2.11059e-15
2.09792e-15
1.8499e-15
1.60789e-15
1.53148e-15
1.19262e-15
1.06762e-15
8.67936e-16
7.80857e-16
5.60289e-16
6.50227e-16
4.74645e-16
6.6409e-16
5.81794e-16
1.73469e-16
1.99497e-15
2.07848e-15
2.17772e-15
2.09075e-15
2.05495e-15
2.09888e-15
2.35835e-15
2.05841e-15
1.71562e-15
1.64444e-15
1.1154e-15
9.96177e-16
9.86469e-16
8.29612e-16
6.01743e-16
4.88089e-16
5.14787e-16
5.39665e-16
4.40142e-16
1.88923e-16
1.69419e-15
1.99558e-15
2.19955e-15
1.93306e-15
2.02912e-15
2.28834e-15
2.49341e-15
2.24795e-15
1.96678e-15
1.6473e-15
9.79771e-16
9.37984e-16
9.15728e-16
7.93662e-16
5.88202e-16
5.27166e-16
4.94188e-16
4.75e-16
3.16877e-16
7.37562e-17
1.71788e-15
1.83401e-15
2.16718e-15
1.89524e-15
2.03058e-15
2.22953e-15
2.36007e-15
2.32784e-15
2.15872e-15
1.71387e-15
1.0301e-15
1.09188e-15
7.826e-16
6.8667e-16
5.69459e-16
2.99945e-16
4.21458e-16
4.88962e-16
1.36499e-16
-1.05982e-16
1.65271e-15
1.93122e-15
2.09017e-15
2.10901e-15
1.87363e-15
2.06165e-15
2.25293e-15
2.45849e-15
2.21934e-15
1.63689e-15
1.06042e-15
1.08626e-15
9.57948e-16
7.21208e-16
4.6106e-16
2.32038e-16
3.41723e-16
3.87817e-16
-5.25705e-17
-1.63606e-16
1.92953e-15
1.99799e-15
2.01516e-15
1.93532e-15
1.83492e-15
2.04541e-15
2.31081e-15
2.37451e-15
2.03986e-15
1.50147e-15
1.18032e-15
1.17675e-15
8.472e-16
5.70928e-16
4.58408e-16
1.9774e-16
2.58214e-16
1.71504e-16
-2.04389e-16
-8.69187e-17
2.15397e-15
1.91928e-15
1.87401e-15
1.83202e-15
1.95352e-15
2.02059e-15
2.22884e-15
2.24617e-15
1.94821e-15
1.57091e-15
1.1576e-15
1.08879e-15
7.88953e-16
3.76065e-16
8.10084e-17
2.2456e-16
4.30836e-16
1.24247e-16
-2.27105e-16
-4.4672e-17
2.28043e-15
1.95563e-15
1.75773e-15
1.67029e-15
2.02492e-15
1.89085e-15
2.04425e-15
2.24684e-15
1.84675e-15
1.60675e-15
1.18137e-15
1.0129e-15
7.62664e-16
3.5092e-16
9.35157e-17
2.70746e-16
3.32865e-16
1.30177e-16
-6.26437e-18
5.96903e-17
2.10033e-15
1.95096e-15
1.72662e-15
1.75392e-15
1.90261e-15
1.98451e-15
1.80616e-15
2.03837e-15
1.83818e-15
1.51916e-15
1.15063e-15
9.12112e-16
6.56777e-16
5.04954e-16
2.79003e-16
2.25259e-16
2.458e-16
1.34504e-16
9.36353e-17
7.54177e-17
2.03453e-15
2.03749e-15
1.84832e-15
1.64359e-15
1.8415e-15
1.82686e-15
1.7334e-15
1.75138e-15
1.56307e-15
1.47841e-15
1.19274e-15
7.78664e-16
5.33938e-16
6.13521e-16
4.40313e-16
2.19185e-16
3.49461e-16
1.45256e-16
3.30303e-17
-3.24002e-17
1.96646e-15
1.91092e-15
1.92329e-15
1.69741e-15
1.73439e-15
1.73153e-15
1.60751e-15
1.61622e-15
1.46661e-15
1.42533e-15
1.1362e-15
7.27666e-16
4.72552e-16
6.21841e-16
5.88305e-16
3.37907e-16
4.1638e-16
2.04807e-16
6.62577e-17
-1.63097e-17
1.94089e-15
1.81439e-15
1.75876e-15
1.70965e-15
1.71926e-15
1.72783e-15
1.74687e-15
1.52601e-15
1.28306e-15
1.33355e-15
1.0091e-15
6.52226e-16
4.62177e-16
7.39066e-16
6.91147e-16
4.57168e-16
4.69538e-16
1.79651e-16
4.1675e-17
-7.50877e-17
2.00441e-15
1.7775e-15
1.65703e-15
1.69941e-15
1.80464e-15
1.74169e-15
1.76632e-15
1.49742e-15
1.20472e-15
1.0966e-15
8.0416e-16
7.50496e-16
4.85042e-16
6.98119e-16
9.02612e-16
4.79453e-16
3.93647e-16
1.02313e-16
1.57096e-17
-9.47092e-17
)
;

boundaryField
{
    inlet
    {
        type            zeroGradient;
    }
    outlet
    {
        type            fixedValue;
        value           uniform 0;
    }
    up
    {
        type            zeroGradient;
    }
    down
    {
        type            zeroGradient;
    }
    frontAndBack
    {
        type            empty;
    }
}


// ************************************************************************* //
