/*--------------------------------*- C++ -*----------------------------------*\
  =========                 |
  \\      /  F ield         | OpenFOAM: The Open Source CFD Toolbox
   \\    /   O peration     | Website:  https://openfoam.org
    \\  /    A nd           | Version:  8
     \\/     M anipulation  |
\*---------------------------------------------------------------------------*/
FoamFile
{
    version     2.0;
    format      ascii;
    class       surfaceScalarField;
    location    "88";
    object      phi;
}
// * * * * * * * * * * * * * * * * * * * * * * * * * * * * * * * * * * * * * //

dimensions      [0 3 -1 0 0 0 0];

internalField   nonuniform List<scalar> 
760
(
0.0004
6.06078e-20
0.0004
3.45096e-20
0.0004
3.92299e-20
0.0004
8.85193e-21
0.0004
3.94475e-20
0.0004
7.21029e-20
0.0004
8.66434e-20
0.0004
5.75722e-20
0.0004
2.9235e-20
0.0004
2.37752e-20
0.0004
4.78068e-20
0.0004
-1.89054e-20
0.0004
-7.50007e-20
0.0004
-3.64464e-20
0.0004
-4.35033e-20
0.0004
-3.6435e-20
0.0004
-5.74226e-20
0.0004
-9.15557e-20
0.0004
-1.63689e-19
-1.42258e-19
0.0004
3.3331e-21
0.0004
6.45767e-20
0.0004
2.94501e-20
0.0004
6.19416e-20
0.0004
4.10373e-20
0.0004
7.60257e-20
0.0004
6.45682e-20
0.0004
3.72423e-20
0.0004
3.21264e-20
0.0004
3.11164e-20
0.0004
-2.79592e-20
0.0004
-4.51887e-20
0.0004
-7.21548e-20
0.0004
-4.75875e-20
0.0004
-2.03244e-20
0.0004
-9.3048e-20
0.0004
-1.05117e-19
0.0004
-8.17943e-20
0.0004
-1.21861e-19
-1.26648e-19
0.0004
-7.71833e-20
0.0004
5.56074e-21
0.0004
9.80864e-20
0.0004
7.0629e-20
0.0004
4.82599e-20
0.0004
-4.24349e-21
0.0004
2.14525e-20
0.0004
4.23002e-20
0.0004
4.50755e-20
0.0004
1.27247e-21
0.0004
-1.22662e-20
0.0004
1.12027e-20
0.0004
-4.0861e-20
0.0004
-1.16539e-19
0.0004
-1.06141e-19
0.0004
-3.25598e-20
0.0004
-1.89954e-20
0.0004
-1.22426e-19
0.0004
-1.39726e-19
-1.46725e-19
0.0004
-4.18876e-20
0.0004
1.04408e-20
0.0004
2.97552e-20
0.0004
4.59137e-20
0.0004
5.06046e-20
0.0004
5.42641e-21
0.0004
-4.444e-20
0.0004
1.71128e-20
0.0004
2.96097e-20
0.0004
1.83753e-20
0.0004
-4.81017e-20
0.0004
-4.35979e-20
0.0004
-1.24997e-20
0.0004
-5.63889e-20
0.0004
-9.22233e-20
0.0004
-3.58855e-20
0.0004
2.9247e-24
0.0004
-1.26565e-19
0.0004
-1.42299e-19
-1.25174e-19
0.0004
-3.09626e-20
0.0004
-1.60989e-20
0.0004
4.94306e-20
0.0004
3.14548e-20
0.0004
2.20254e-21
0.0004
-1.50745e-20
0.0004
-2.05693e-20
0.0004
-5.08597e-20
0.0004
-5.4327e-20
0.0004
-3.20913e-20
0.0004
-5.2208e-20
0.0004
-5.80112e-20
0.0004
-5.14051e-20
0.0004
-1.03515e-19
0.0004
-3.92914e-20
0.0004
-2.62557e-20
0.0004
-9.2998e-20
0.0004
-1.07782e-19
0.0004
-1.21068e-19
-1.08326e-19
0.0004
2.79551e-20
0.0004
4.44764e-20
0.0004
2.56181e-20
0.0004
4.47469e-20
0.0004
1.37178e-22
0.0004
-3.29943e-20
0.0004
-6.73139e-20
0.0004
-8.19734e-20
0.0004
-1.01857e-19
0.0004
-1.40614e-19
0.0004
-1.05122e-19
0.0004
-5.42656e-20
0.0004
-6.25662e-20
0.0004
-9.35516e-20
0.0004
-1.23709e-19
0.0004
-8.09489e-20
0.0004
-1.76251e-20
0.0004
-5.48623e-20
0.0004
-7.38177e-20
-7.84993e-20
0.0004
8.02851e-20
0.0004
2.97106e-20
0.0004
-6.94724e-21
0.0004
2.86901e-20
0.0004
3.95181e-20
0.0004
9.21612e-21
0.0004
-6.94691e-20
0.0004
-1.3063e-19
0.0004
-1.8579e-19
0.0004
-1.71499e-19
0.0004
-2.91054e-20
0.0004
-1.01231e-19
0.0004
-1.04134e-19
0.0004
-1.22284e-19
0.0004
-1.19682e-19
0.0004
-1.77521e-19
0.0004
-7.73599e-20
0.0004
-3.68303e-20
0.0004
-7.54341e-20
-8.14236e-20
0.0004
6.93821e-20
0.0004
6.35846e-20
0.0004
2.15997e-20
0.0004
4.86891e-20
0.0004
4.68372e-20
0.0004
1.05132e-20
0.0004
-8.95258e-20
0.0004
-1.17963e-19
0.0004
-1.54888e-19
0.0004
-1.94334e-19
0.0004
-1.10606e-19
0.0004
-9.1232e-20
0.0004
-1.49639e-19
0.0004
-1.44598e-19
0.0004
-1.58054e-19
0.0004
-9.45965e-20
0.0004
-1.3355e-19
0.0004
-6.29427e-20
0.0004
-2.03409e-20
-5.48289e-20
0.0004
7.47169e-20
0.0004
7.38849e-20
0.0004
1.82155e-20
0.0004
4.0471e-20
0.0004
1.55733e-21
0.0004
-6.77554e-20
0.0004
-5.96356e-20
0.0004
-1.18325e-19
0.0004
-1.98877e-19
0.0004
-1.64531e-19
0.0004
-1.24585e-19
0.0004
-1.24171e-19
0.0004
-1.12011e-19
0.0004
-1.34019e-19
0.0004
-1.54031e-19
0.0004
-1.48372e-19
0.0004
-1.19645e-19
0.0004
-9.6244e-20
0.0004
-4.11891e-20
-1.83948e-20
0.0004
4.54236e-21
0.0004
6.7165e-20
0.0004
2.0668e-20
0.0004
-2.52045e-21
0.0004
-1.88138e-20
0.0004
-6.68862e-21
0.0004
-6.6347e-21
0.0004
-1.11927e-19
0.0004
-1.83335e-19
0.0004
-1.69728e-19
0.0004
-1.79581e-19
0.0004
-1.97631e-19
0.0004
-1.06555e-19
0.0004
-1.13155e-19
0.0004
-1.33833e-19
0.0004
-5.99493e-20
0.0004
-1.00424e-19
0.0004
-1.15011e-19
0.0004
-3.46156e-20
-1.14472e-20
0.0004
1.13389e-20
0.0004
-2.3931e-20
0.0004
1.19782e-20
0.0004
-8.15174e-20
0.0004
1.06615e-20
0.0004
4.08654e-21
0.0004
-4.62843e-20
0.0004
-1.53934e-19
0.0004
-1.54322e-19
0.0004
-1.13852e-19
0.0004
-1.55063e-19
0.0004
-1.60564e-19
0.0004
-1.9777e-19
0.0004
-1.37257e-19
0.0004
-7.56041e-20
0.0004
-8.7091e-20
0.0004
-9.80492e-20
0.0004
-7.68319e-20
0.0004
-3.93988e-20
-6.07295e-20
0.0004
-6.21018e-20
0.0004
-4.03967e-20
0.0004
-3.43784e-21
0.0004
6.11498e-21
0.0004
-4.63415e-20
0.0004
-6.22377e-20
0.0004
-1.31035e-19
0.0004
-1.12842e-19
0.0004
-7.61734e-20
0.0004
-8.64627e-20
0.0004
-1.74542e-19
0.0004
-1.87912e-19
0.0004
-1.20716e-19
0.0004
-6.76668e-20
0.0004
-7.35507e-20
0.0004
-8.52717e-20
0.0004
-9.78125e-20
0.0004
-5.71202e-20
0.0004
-5.35717e-20
-1.22645e-19
0.0004
-5.85987e-20
0.0004
-2.53899e-20
0.0004
3.50844e-21
0.0004
-1.05836e-20
0.0004
-9.80433e-20
0.0004
-9.44539e-20
0.0004
-1.05019e-19
0.0004
-1.00667e-19
0.0004
-9.50844e-20
0.0004
-1.42258e-19
0.0004
-1.3998e-19
0.0004
-1.35494e-19
0.0004
-1.23269e-19
0.0004
-3.91045e-20
0.0004
2.91656e-20
0.0004
-9.74595e-20
0.0004
-1.65535e-19
0.0004
-9.99321e-20
0.0004
-9.02087e-20
-1.31643e-19
0.0004
-4.34118e-20
0.0004
-5.98262e-20
0.0004
-1.52813e-20
0.0004
2.2912e-21
0.0004
-9.59054e-20
0.0004
-7.71257e-20
0.0004
-6.51398e-20
0.0004
-1.28378e-19
0.0004
-9.73151e-20
0.0004
-1.33554e-19
0.0004
-1.50755e-19
0.0004
-1.24696e-19
0.0004
-1.12253e-19
0.0004
-8.91858e-20
0.0004
-9.22168e-20
0.0004
-1.04799e-19
0.0004
-8.18922e-20
0.0004
-1.03364e-19
0.0004
-1.72706e-19
-1.4938e-19
0.0004
2.35948e-20
0.0004
-4.99647e-20
0.0004
-5.761e-20
0.0004
-9.60109e-20
0.0004
-5.0184e-20
0.0004
-1.31586e-19
0.0004
-4.97048e-20
0.0004
-5.07866e-20
0.0004
-1.07217e-19
0.0004
-9.61883e-20
0.0004
-1.24406e-19
0.0004
-1.0202e-19
0.0004
-7.51539e-20
0.0004
-1.28956e-19
0.0004
-1.44651e-19
0.0004
-8.67801e-20
0.0004
-7.3641e-20
0.0004
-9.85103e-20
0.0004
-1.33471e-19
-1.16698e-19
0.0004
2.32531e-21
0.0004
-6.96329e-20
0.0004
-1.10413e-19
0.0004
-5.58243e-20
0.0004
-8.68011e-20
0.0004
-7.07147e-20
0.0004
-8.07398e-20
0.0004
-1.8553e-20
0.0004
-1.83355e-20
0.0004
-9.32266e-20
0.0004
-1.31669e-19
0.0004
-8.39558e-20
0.0004
-6.16443e-20
0.0004
-1.08959e-19
0.0004
-1.28876e-19
0.0004
-8.31401e-20
0.0004
-1.0769e-19
0.0004
-9.73477e-20
0.0004
-7.73514e-20
-6.23125e-20
0.0004
3.38176e-21
0.0004
-2.6452e-21
0.0004
-8.99894e-20
0.0004
-1.16834e-19
0.0004
-7.45657e-20
0.0004
-7.9286e-20
0.0004
-6.9269e-20
0.0004
-6.63055e-20
0.0004
-6.98503e-20
0.0004
-7.80957e-20
0.0004
-8.79822e-20
0.0004
-9.69158e-20
0.0004
-7.28488e-20
0.0004
-7.34655e-20
0.0004
-1.06378e-19
0.0004
-9.98658e-20
0.0004
-8.63395e-20
0.0004
-9.53456e-20
0.0004
-8.35761e-20
-6.47998e-20
0.0004
-2.93942e-21
0.0004
-9.36465e-21
0.0004
-7.59626e-21
0.0004
-7.73299e-20
0.0004
-8.62429e-20
0.0004
-1.03585e-19
0.0004
-1.59551e-19
0.0004
-9.92229e-20
0.0004
-6.33708e-20
0.0004
-8.28902e-20
0.0004
-5.96118e-20
0.0004
-6.78804e-20
0.0004
-7.56187e-20
0.0004
-8.82663e-20
0.0004
-7.79305e-20
0.0004
-8.34869e-20
0.0004
-6.86271e-20
0.0004
-5.76926e-20
0.0004
-5.3204e-20
-2.82278e-20
0.0004
-2.09252e-20
0.0004
-1.87462e-20
0.0004
-8.3673e-21
0.0004
-4.73236e-20
0.0004
-1.04493e-19
0.0004
-1.05594e-19
0.0004
-1.33798e-19
0.0004
-1.4196e-19
0.0004
-1.15928e-19
0.0004
-4.0265e-20
0.0004
-2.53138e-20
0.0004
-1.13117e-19
0.0004
-7.86047e-20
0.0004
-3.41329e-20
0.0004
-1.14514e-19
0.0004
-4.37744e-20
0.0004
-1.28012e-20
0.0004
-2.09549e-20
0.0004
-4.34178e-20
-2.69265e-20
0.0004
0.0004
0.0004
0.0004
0.0004
0.0004
0.0004
0.0004
0.0004
0.0004
0.0004
0.0004
0.0004
0.0004
0.0004
0.0004
0.0004
0.0004
0.0004
)
;

boundaryField
{
    inlet
    {
        type            calculated;
        value           nonuniform List<scalar> 
20
(
-0.0004
-0.0004
-0.0004
-0.0004
-0.0004
-0.0004
-0.0004
-0.0004
-0.0004
-0.0004
-0.0004
-0.0004
-0.0004
-0.0004
-0.0004
-0.0004
-0.0004
-0.0004
-0.0004
-0.0004
)
;
    }
    outlet
    {
        type            calculated;
        value           nonuniform List<scalar> 
20
(
0.0004
0.0004
0.0004
0.0004
0.0004
0.0004
0.0004
0.0004
0.0004
0.0004
0.0004
0.0004
0.0004
0.0004
0.0004
0.0004
0.0004
0.0004
0.0004
0.0004
)
;
    }
    up
    {
        type            calculated;
        value           nonuniform List<scalar> 
20
(
-4.42134e-21
-2.63646e-20
-3.67319e-20
-3.58956e-20
-6.76962e-20
-9.19703e-20
-1.30584e-19
-1.59096e-19
-1.47502e-19
-1.30243e-19
-9.37395e-20
-8.22626e-20
-5.57269e-20
-4.30569e-20
-5.54408e-20
-3.50436e-20
-2.46117e-20
-3.45924e-20
-5.07823e-20
-3.40992e-20
)
;
    }
    down
    {
        type            calculated;
        value           nonuniform List<scalar> 
20
(
-7.45616e-21
-5.4855e-20
-5.90163e-20
-1.81603e-20
-4.57041e-20
-4.15907e-20
-6.59085e-20
-7.12696e-20
-5.00886e-20
-4.65588e-20
-5.39183e-20
-4.98902e-20
1.51346e-20
4.36539e-20
4.33987e-20
3.59081e-20
4.95271e-20
8.45462e-20
1.20559e-19
1.29692e-19
)
;
    }
    frontAndBack
    {
        type            empty;
        value           nonuniform List<scalar> 0();
    }
}


// ************************************************************************* //
