/*--------------------------------*- C++ -*----------------------------------*\
  =========                 |
  \\      /  F ield         | OpenFOAM: The Open Source CFD Toolbox
   \\    /   O peration     | Website:  https://openfoam.org
    \\  /    A nd           | Version:  8
     \\/     M anipulation  |
\*---------------------------------------------------------------------------*/
FoamFile
{
    version     2.0;
    format      ascii;
    class       surfaceScalarField;
    location    "1.36";
    object      phi;
}
// * * * * * * * * * * * * * * * * * * * * * * * * * * * * * * * * * * * * * //

dimensions      [0 3 -1 0 0 0 0];

internalField   nonuniform List<scalar> 
760
(
1.24946e-06
-1.70826e-18
1.24946e-06
-3.44629e-18
1.24946e-06
-4.82244e-18
1.24946e-06
-5.64726e-18
1.24946e-06
-5.88244e-18
1.24946e-06
-5.66695e-18
1.24946e-06
-4.84919e-18
1.24946e-06
-3.63581e-18
1.24946e-06
-2.03131e-18
1.24946e-06
-2.4889e-19
1.24946e-06
1.58953e-18
1.24946e-06
3.30144e-18
1.24946e-06
4.64734e-18
1.24946e-06
5.6266e-18
1.24946e-06
5.98248e-18
1.24946e-06
5.8665e-18
1.24946e-06
5.05526e-18
1.24946e-06
3.80585e-18
1.24946e-06
1.96378e-18
8.65666e-20
3.74839e-06
-1.28718e-17
3.74839e-06
-1.8909e-17
3.74839e-06
-2.31256e-17
3.74839e-06
-2.48253e-17
3.74839e-06
-2.43365e-17
3.74839e-06
-2.13627e-17
3.74839e-06
-1.66056e-17
3.74839e-06
-1.01406e-17
3.74839e-06
-2.86266e-18
3.74839e-06
4.81854e-18
3.74839e-06
1.20838e-17
3.74839e-06
1.8201e-17
3.74839e-06
2.26873e-17
3.74839e-06
2.48407e-17
3.74839e-06
2.47885e-17
3.74839e-06
2.20855e-17
3.74839e-06
1.73742e-17
3.74839e-06
1.06154e-17
3.74839e-06
2.84418e-18
-5.31292e-18
6.24736e-06
-3.61504e-17
6.24736e-06
-4.87704e-17
6.24736e-06
-5.61893e-17
6.24736e-06
-5.81557e-17
6.24736e-06
-5.426e-17
6.24736e-06
-4.55299e-17
6.24736e-06
-3.2282e-17
6.24736e-06
-1.62699e-17
6.24736e-06
1.47329e-18
6.24736e-06
1.89993e-17
6.24736e-06
3.48454e-17
6.24736e-06
4.74417e-17
6.24736e-06
5.53788e-17
6.24736e-06
5.81828e-17
6.24736e-06
5.50795e-17
6.24736e-06
4.68534e-17
6.24736e-06
3.36112e-17
6.24736e-06
1.71303e-17
6.24736e-06
-1.4972e-18
-1.99032e-17
8.74639e-06
-6.92025e-17
8.74639e-06
-8.87967e-17
8.74639e-06
-9.95039e-17
8.74639e-06
-1.00112e-16
8.74639e-06
-9.1273e-17
8.74639e-06
-7.34041e-17
8.74639e-06
-4.89494e-17
8.74639e-06
-1.95978e-17
8.74639e-06
1.13293e-17
8.74639e-06
4.13981e-17
8.74639e-06
6.74818e-17
8.74639e-06
8.70949e-17
8.74639e-06
9.84561e-17
8.74639e-06
1.0009e-16
8.74639e-06
9.22933e-17
8.74639e-06
7.5068e-17
8.74639e-06
5.06672e-17
8.74639e-06
2.06883e-17
8.74639e-06
-1.13001e-17
-4.24418e-17
1.12455e-05
-1.05086e-16
1.12455e-05
-1.31194e-16
1.12455e-05
-1.43995e-16
1.12455e-05
-1.42761e-16
1.12455e-05
-1.27314e-16
1.12455e-05
-9.99878e-17
1.12455e-05
-6.2791e-17
1.12455e-05
-2.00225e-17
1.12455e-05
2.49234e-17
1.12455e-05
6.7289e-17
1.12455e-05
1.03323e-16
1.12455e-05
1.29399e-16
1.12455e-05
1.42865e-16
1.12455e-05
1.42715e-16
1.12455e-05
1.28368e-16
1.12455e-05
1.01751e-16
1.12455e-05
6.45914e-17
1.12455e-05
2.11684e-17
1.12455e-05
-2.48928e-17
-6.83661e-17
1.37448e-05
-1.35778e-16
1.37448e-05
-1.66222e-16
1.37448e-05
-1.80183e-16
1.37448e-05
-1.76168e-16
1.37448e-05
-1.55262e-16
1.37448e-05
-1.19023e-16
1.37448e-05
-7.17534e-17
1.37448e-05
-1.73041e-17
1.37448e-05
3.84598e-17
1.37448e-05
9.07723e-17
1.37448e-05
1.34162e-16
1.37448e-05
1.6459e-16
1.37448e-05
1.79156e-16
1.37448e-05
1.76163e-16
1.37448e-05
1.56268e-16
1.37448e-05
1.20654e-16
1.37448e-05
7.33944e-17
1.37448e-05
1.83006e-17
1.37448e-05
-3.8469e-17
-9.17711e-17
1.62441e-05
-1.5432e-16
1.62441e-05
-1.86152e-16
1.62441e-05
-1.99467e-16
1.62441e-05
-1.93339e-16
1.62441e-05
-1.68105e-16
1.62441e-05
-1.26895e-16
1.62441e-05
-7.31073e-17
1.62441e-05
-1.2676e-17
1.62441e-05
4.9288e-17
1.62441e-05
1.06211e-16
1.62441e-05
1.52986e-16
1.62441e-05
1.84817e-16
1.62441e-05
1.98687e-16
1.62441e-05
1.93404e-16
1.62441e-05
1.68987e-16
1.62441e-05
1.28261e-16
1.62441e-05
7.44289e-17
1.62441e-05
1.34259e-17
1.62441e-05
-4.93676e-17
-1.0708e-16
1.87436e-05
-1.56876e-16
1.87436e-05
-1.86629e-16
1.87436e-05
-1.97947e-16
1.87436e-05
-1.89761e-16
1.87436e-05
-1.63255e-16
1.87436e-05
-1.2063e-16
1.87436e-05
-6.66284e-17
1.87436e-05
-5.88127e-18
1.87436e-05
5.51161e-17
1.87436e-05
1.11009e-16
1.87436e-05
1.55864e-16
1.87436e-05
1.85662e-16
1.87436e-05
1.97422e-16
1.87436e-05
1.89894e-16
1.87436e-05
1.6398e-16
1.87436e-05
1.21667e-16
1.87436e-05
6.75776e-17
1.87436e-05
6.37013e-18
1.87436e-05
-5.52507e-17
-1.11716e-16
2.12433e-05
-1.43975e-16
2.12433e-05
-1.68202e-16
2.12433e-05
-1.75957e-16
2.12433e-05
-1.66512e-16
2.12433e-05
-1.4072e-16
2.12433e-05
-1.01424e-16
2.12433e-05
-5.20122e-17
2.12433e-05
2.16251e-18
2.12433e-05
5.64103e-17
2.12433e-05
1.04867e-16
2.12433e-05
1.43279e-16
2.12433e-05
1.67579e-16
2.12433e-05
1.75664e-16
2.12433e-05
1.66675e-16
2.12433e-05
1.41263e-16
2.12433e-05
1.0213e-16
2.12433e-05
5.26062e-17
2.12433e-05
-1.90484e-18
2.12433e-05
-5.65702e-17
-1.05377e-16
2.37431e-05
-1.19219e-16
2.37431e-05
-1.3567e-16
2.37431e-05
-1.38743e-16
2.37431e-05
-1.2826e-16
2.37431e-05
-1.05339e-16
2.37431e-05
-7.20269e-17
2.37431e-05
-3.18637e-17
2.37431e-05
1.16451e-17
2.37431e-05
5.37648e-17
2.37431e-05
9.08482e-17
2.37431e-05
1.18807e-16
2.37431e-05
1.35364e-16
2.37431e-05
1.38637e-16
2.37431e-05
1.28441e-16
2.37431e-05
1.0571e-16
2.37431e-05
7.24379e-17
2.37431e-05
3.21514e-17
2.37431e-05
-1.1574e-17
2.37431e-05
-5.39334e-17
-9.11971e-17
2.62431e-05
-8.89011e-17
2.62431e-05
-9.62207e-17
2.62431e-05
-9.43203e-17
2.62431e-05
-8.31154e-17
2.62431e-05
-6.38535e-17
2.62431e-05
-3.83981e-17
2.62431e-05
-9.05713e-18
2.62431e-05
2.10219e-17
2.62431e-05
4.9259e-17
2.62431e-05
7.24284e-17
2.62431e-05
8.87266e-17
2.62431e-05
9.61732e-17
2.62431e-05
9.44046e-17
2.62431e-05
8.33129e-17
2.62431e-05
6.40812e-17
2.62431e-05
3.85656e-17
2.62431e-05
9.08503e-18
2.62431e-05
-2.11236e-17
2.62431e-05
-4.94494e-17
-7.26409e-17
2.87433e-05
-5.87048e-17
2.87433e-05
-5.78686e-17
2.87433e-05
-5.12429e-17
2.87433e-05
-3.97864e-17
2.87433e-05
-2.43871e-17
2.87433e-05
-6.60565e-18
2.87433e-05
1.17966e-17
2.87433e-05
2.92017e-17
2.87433e-05
4.35825e-17
2.87433e-05
5.38975e-17
2.87433e-05
5.87381e-17
2.87433e-05
5.80554e-17
2.87433e-05
5.15036e-17
2.87433e-05
4.00191e-17
2.87433e-05
2.45102e-17
2.87433e-05
6.57233e-18
2.87433e-05
-1.19927e-17
2.87433e-05
-2.94575e-17
2.87433e-05
-4.38208e-17
-5.40355e-17
3.12436e-05
-3.36929e-17
3.12436e-05
-2.63755e-17
3.12436e-05
-1.67588e-17
3.12436e-05
-5.39585e-18
3.12436e-05
6.34508e-18
3.12436e-05
1.75648e-17
3.12436e-05
2.71048e-17
3.12436e-05
3.3962e-17
3.12436e-05
3.76356e-17
3.12436e-05
3.74754e-17
3.12436e-05
3.388e-17
3.12436e-05
2.67574e-17
3.12436e-05
1.71848e-17
3.12436e-05
5.68008e-18
3.12436e-05
-6.29096e-18
3.12436e-05
-1.7753e-17
3.12436e-05
-2.74754e-17
3.12436e-05
-3.4385e-17
3.12436e-05
-3.79294e-17
-3.7548e-17
3.37441e-05
-1.56851e-17
3.37441e-05
-5.34951e-18
3.37441e-05
5.65594e-18
3.37441e-05
1.58153e-17
3.37441e-05
2.45879e-17
3.37441e-05
3.08681e-17
3.37441e-05
3.42151e-17
3.37441e-05
3.42671e-17
3.37441e-05
3.09214e-17
3.37441e-05
2.47295e-17
3.37441e-05
1.59733e-17
3.37441e-05
5.86384e-18
3.37441e-05
-5.11316e-18
3.37441e-05
-1.5482e-17
3.37441e-05
-2.4559e-17
3.37441e-05
-3.11476e-17
3.37441e-05
-3.47077e-17
3.37441e-05
-3.48e-17
3.37441e-05
-3.12766e-17
-2.47923e-17
3.62448e-05
-5.15114e-18
3.62448e-05
5.59353e-18
3.62448e-05
1.55077e-17
3.62448e-05
2.39921e-17
3.62448e-05
2.9955e-17
3.62448e-05
3.31341e-17
3.62448e-05
3.30251e-17
3.62448e-05
2.9737e-17
3.62448e-05
2.36399e-17
3.62448e-05
1.51818e-17
3.62448e-05
5.4413e-18
3.62448e-05
-5.03625e-18
3.62448e-05
-1.49044e-17
3.62448e-05
-2.36228e-17
3.62448e-05
-2.99214e-17
3.62448e-05
-3.34434e-17
3.62448e-05
-3.3559e-17
3.62448e-05
-3.03063e-17
3.62448e-05
-2.40328e-17
-1.52555e-17
3.87455e-05
-4.93541e-20
3.87455e-05
8.33182e-18
3.87455e-05
1.60304e-17
3.87455e-05
2.18951e-17
3.87455e-05
2.57544e-17
3.87455e-05
2.69554e-17
3.87455e-05
2.56357e-17
3.87455e-05
2.18109e-17
3.87455e-05
1.58784e-17
3.87455e-05
8.54312e-18
3.87455e-05
2.95328e-19
3.87455e-05
-7.83241e-18
3.87455e-05
-1.54781e-17
3.87455e-05
-2.15258e-17
3.87455e-05
-2.56988e-17
3.87455e-05
-2.72196e-17
3.87455e-05
-2.61169e-17
3.87455e-05
-2.23159e-17
3.87455e-05
-1.62598e-17
-8.6457e-18
4.12464e-05
1.30875e-18
4.12464e-05
6.66469e-18
4.12464e-05
1.11739e-17
4.12464e-05
1.47021e-17
4.12464e-05
1.65984e-17
4.12464e-05
1.6982e-17
4.12464e-05
1.56117e-17
4.12464e-05
1.27915e-17
4.12464e-05
8.78348e-18
4.12464e-05
3.92302e-18
4.12464e-05
-1.17478e-18
4.12464e-05
-6.31144e-18
4.12464e-05
-1.07631e-17
4.12464e-05
-1.43976e-17
4.12464e-05
-1.65218e-17
4.12464e-05
-1.71447e-17
4.12464e-05
-1.59503e-17
4.12464e-05
-1.31752e-17
4.12464e-05
-9.08117e-18
-4.02071e-18
4.37474e-05
1.13741e-18
4.37474e-05
3.43113e-18
4.37474e-05
5.44753e-18
4.37474e-05
6.82408e-18
4.37474e-05
7.59905e-18
4.37474e-05
7.51627e-18
4.37474e-05
6.76449e-18
4.37474e-05
5.329e-18
4.37474e-05
3.40226e-18
4.37474e-05
1.22668e-18
4.37474e-05
-1.09902e-18
4.37474e-05
-3.23608e-18
4.37474e-05
-5.2196e-18
4.37474e-05
-6.6385e-18
4.37474e-05
-7.54054e-18
4.37474e-05
-7.59088e-18
4.37474e-05
-6.92795e-18
4.37474e-05
-5.51883e-18
4.37474e-05
-3.58964e-18
-1.33247e-18
4.62484e-05
3.87723e-19
4.62484e-05
9.42704e-19
4.62484e-05
1.37113e-18
4.62484e-05
1.69785e-18
4.62484e-05
1.79774e-18
4.62484e-05
1.75723e-18
4.62484e-05
1.50169e-18
4.62484e-05
1.09351e-18
4.62484e-05
5.86279e-19
4.62484e-05
4.20533e-20
4.62484e-05
-4.40578e-19
4.62484e-05
-9.20183e-19
4.62484e-05
-1.30061e-18
4.62484e-05
-1.63263e-18
4.62484e-05
-1.74505e-18
4.62484e-05
-1.7259e-18
4.62484e-05
-1.49497e-18
4.62484e-05
-1.13898e-18
4.62484e-05
-6.61284e-19
-1.20971e-19
4.87495e-05
4.87495e-05
4.87495e-05
4.87495e-05
4.87495e-05
4.87495e-05
4.87495e-05
4.87495e-05
4.87495e-05
4.87495e-05
4.87495e-05
4.87495e-05
4.87495e-05
4.87495e-05
4.87495e-05
4.87495e-05
4.87495e-05
4.87495e-05
4.87495e-05
)
;

boundaryField
{
    movingWall
    {
        type            calculated;
        value           uniform 0;
    }
    fixedWalls
    {
        type            calculated;
        value           uniform 0;
    }
    left
    {
        type            cyclic;
        value           nonuniform List<scalar> 
20
(
-3.87455e-05
-3.62448e-05
-3.37441e-05
-3.12436e-05
-2.87433e-05
-2.62431e-05
-2.37431e-05
-2.12433e-05
-1.87436e-05
-1.62441e-05
-1.37448e-05
-1.12455e-05
-8.74639e-06
-6.24736e-06
-3.74839e-06
-1.24946e-06
-4.12464e-05
-4.37474e-05
-4.62484e-05
-4.87495e-05
)
;
    }
    right
    {
        type            cyclic;
        value           nonuniform List<scalar> 
20
(
3.87455e-05
3.62448e-05
3.37441e-05
3.12436e-05
2.87433e-05
2.62431e-05
2.37431e-05
2.12433e-05
1.87436e-05
1.62441e-05
1.37448e-05
1.12455e-05
8.74639e-06
6.24736e-06
3.74839e-06
1.24946e-06
4.12464e-05
4.37474e-05
4.62484e-05
4.87495e-05
)
;
    }
    frontAndBack
    {
        type            empty;
        value           nonuniform List<scalar> 0();
    }
}


// ************************************************************************* //
