/*--------------------------------*- C++ -*----------------------------------*\
  =========                 |
  \\      /  F ield         | OpenFOAM: The Open Source CFD Toolbox
   \\    /   O peration     | Website:  https://openfoam.org
    \\  /    A nd           | Version:  8
     \\/     M anipulation  |
\*---------------------------------------------------------------------------*/
FoamFile
{
    version     2.0;
    format      ascii;
    class       volVectorField;
    location    "71";
    object      U;
}
// * * * * * * * * * * * * * * * * * * * * * * * * * * * * * * * * * * * * * //

dimensions      [0 1 -1 0 0 0 0];

internalField   nonuniform List<vector> 
12504
(
(1.00013 -0.000633551 7.40314e-07)
(1.00323 -0.00188689 -1.11926e-06)
(1.00939 -0.00308074 -1.99585e-06)
(1.01854 -0.00416913 -1.3729e-06)
(1.0303 -0.00511275 -7.81988e-07)
(1.04422 -0.00587928 -5.51209e-07)
(1.05984 -0.00644446 -3.85091e-07)
(1.07662 -0.00679402 -5.69639e-08)
(1.09401 -0.0069249 3.12696e-07)
(1.11146 -0.00684519 6.4631e-07)
(1.12847 -0.00657261 9.02338e-07)
(1.14456 -0.00613145 1.05576e-06)
(1.15935 -0.00554892 1.09587e-06)
(1.1725 -0.00485095 1.0397e-06)
(1.18377 -0.00405935 9.28561e-07)
(1.19294 -0.00319058 8.00712e-07)
(1.19984 -0.00225583 6.96581e-07)
(1.20432 -0.00126337 6.23915e-07)
(1.20625 -0.000219941 4.98542e-07)
(1.2055 0.000866564 6.13974e-07)
(1.20198 0.00198509 7.64477e-07)
(1.19564 0.0031202 8.57449e-07)
(1.18643 0.00425087 8.93185e-07)
(1.17441 0.0053503 8.65768e-07)
(1.15968 0.00638735 7.71795e-07)
(1.14244 0.00732785 6.27097e-07)
(1.12297 0.00813743 4.30568e-07)
(1.10163 0.00878315 2.5432e-07)
(1.0789 0.00923653 1.30584e-08)
(1.05526 0.00947426 -1.11222e-07)
(1.03131 0.00947959 -2.67623e-07)
(1.00762 0.00924223 -2.12649e-07)
(0.984884 0.00875674 -3.04696e-07)
(0.963608 0.00802471 -1.38613e-08)
(0.944586 0.0070468 -1.79929e-07)
(0.928176 0.00583693 3.76764e-07)
(0.915315 0.00439409 -6.31617e-08)
(0.906058 0.00275616 8.45296e-07)
(0.901572 0.000904096 -1.25503e-07)
(0.901451 -0.00106013 1.1535e-06)
(0.907048 -0.00322348 -3.8456e-07)
(0.91758 -0.00531599 8.51841e-07)
(0.933857 -0.00763449 -2.46018e-07)
(0.956027 -0.0095167 -1.09756e-06)
(0.98139 -0.011778 2.12123e-06)
(1.01596 -0.0129909 -6.90616e-06)
(1.04514 -0.0149311 9.63345e-06)
(1.09363 -0.0150268 -1.87792e-05)
(1.11611 -0.0162772 1.95753e-05)
(1.18204 -0.0150247 -2.16916e-05)
(1.00013 -0.00191876 7.14622e-07)
(1.0033 -0.00570995 -1.16938e-06)
(1.00963 -0.00932077 -2.01752e-06)
(1.019 -0.0126134 -1.38935e-06)
(1.03105 -0.0154671 -8.0763e-07)
(1.04532 -0.0177833 -5.74304e-07)
(1.06131 -0.0194883 -3.95901e-07)
(1.07849 -0.020539 -3.60542e-08)
(1.09627 -0.0209263 3.58407e-07)
(1.1141 -0.0206757 7.11003e-07)
(1.13145 -0.0198421 9.77235e-07)
(1.14783 -0.0185008 1.12753e-06)
(1.16287 -0.0167357 1.15208e-06)
(1.17623 -0.0146262 1.07423e-06)
(1.18767 -0.0122387 9.4468e-07)
(1.19698 -0.00962221 8.06281e-07)
(1.204 -0.00680953 7.02023e-07)
(1.20859 -0.00382465 6.31341e-07)
(1.21059 -0.000684689 5.43152e-07)
(1.2099 0.00258512 6.40875e-07)
(1.20642 0.00595363 8.00924e-07)
(1.20007 0.00937538 9.14927e-07)
(1.19082 0.0127871 9.62883e-07)
(1.17869 0.0161076 9.41217e-07)
(1.1638 0.0192421 8.49418e-07)
(1.14633 0.0220866 7.02238e-07)
(1.12658 0.0245364 4.91792e-07)
(1.10492 0.0264913 2.91314e-07)
(1.08181 0.0278646 4.16194e-08)
(1.05777 0.0285858 -9.01551e-08)
(1.03342 0.0286046 -2.36103e-07)
(1.00931 0.0278901 -1.76205e-07)
(0.986173 0.026427 -2.91197e-07)
(0.964515 0.0242197 -1.9737e-08)
(0.945147 0.0212718 -1.99432e-07)
(0.928424 0.0176235 3.68198e-07)
(0.915309 0.0132737 -9.68732e-08)
(0.905843 0.00833276 8.27249e-07)
(0.901243 0.0027459 -2.05651e-07)
(0.901058 -0.00318447 1.14263e-06)
(0.906741 -0.0097193 -4.90625e-07)
(0.917419 -0.0160422 9.28224e-07)
(0.934043 -0.0230616 -3.42199e-07)
(0.956644 -0.0287446 -9.08445e-07)
(0.982596 -0.0356156 2.0811e-06)
(1.01798 -0.0392554 -6.71989e-06)
(1.04782 -0.0451856 9.80416e-06)
(1.09761 -0.0454288 -1.88667e-05)
(1.12055 -0.0492895 1.98383e-05)
(1.18837 -0.0454947 -2.22213e-05)
(1.00014 -0.00325316 7.33958e-07)
(1.00347 -0.00967662 -1.24449e-06)
(1.0101 -0.0157943 -2.11937e-06)
(1.01994 -0.0213735 -1.46463e-06)
(1.03259 -0.0262065 -8.60307e-07)
(1.04756 -0.0301235 -6.04682e-07)
(1.06433 -0.0329985 -3.90478e-07)
(1.08231 -0.0347575 3.34813e-08)
(1.1009 -0.0353862 4.9095e-07)
(1.11949 -0.0349301 8.94523e-07)
(1.13752 -0.0334876 1.18655e-06)
(1.15451 -0.0311925 1.32642e-06)
(1.17004 -0.0281924 1.30653e-06)
(1.18382 -0.0246257 1.16574e-06)
(1.1956 -0.0206049 9.7831e-07)
(1.2052 -0.0162114 8.00428e-07)
(1.21246 -0.0114968 6.78494e-07)
(1.21725 -0.00649644 6.09751e-07)
(1.21943 -0.0012371 5.03277e-07)
(1.21886 0.00424827 6.33848e-07)
(1.21545 0.00990793 8.531e-07)
(1.20909 0.0156671 1.009e-06)
(1.19973 0.0214204 1.08337e-06)
(1.1874 0.0270298 1.08138e-06)
(1.17217 0.0323333 9.96648e-07)
(1.15425 0.0371523 8.41671e-07)
(1.13393 0.0413068 6.11216e-07)
(1.11159 0.0446245 3.86346e-07)
(1.08772 0.0469578 1.26649e-07)
(1.06287 0.0481866 -4.24472e-08)
(1.03768 0.0482272 -2.29828e-07)
(1.01274 0.0470286 -1.93444e-07)
(0.988789 0.0445674 -3.27899e-07)
(0.96636 0.0408522 -3.81924e-08)
(0.946295 0.0358913 -2.38528e-07)
(0.928943 0.0297502 3.62779e-07)
(0.915322 0.0224282 -1.64309e-07)
(0.905437 0.0141052 8.54978e-07)
(0.900615 0.00468779 -3.05541e-07)
(0.900312 -0.00531947 1.25787e-06)
(0.906189 -0.0163667 -6.46892e-07)
(0.917176 -0.0270558 1.17282e-06)
(0.934538 -0.0389734 -5.53446e-07)
(0.958026 -0.0485725 -5.29694e-07)
(0.985222 -0.0603035 2.03023e-06)
(1.02223 -0.0664018 -6.4954e-06)
(1.05347 -0.0765943 1.0411e-05)
(1.10585 -0.0769377 -1.9529e-05)
(1.12974 -0.0836193 2.0908e-05)
(1.20135 -0.0772833 -2.36878e-05)
(1.00015 -0.00466811 7.78716e-07)
(1.00372 -0.0138858 -1.35536e-06)
(1.01084 -0.0226654 -2.29989e-06)
(1.0214 -0.0306717 -1.59895e-06)
(1.03497 -0.0376024 -9.43502e-07)
(1.05103 -0.043209 -6.51681e-07)
(1.069 -0.0473067 -3.67227e-07)
(1.08824 -0.0497867 1.49782e-07)
(1.10808 -0.0506296 7.12294e-07)
(1.12785 -0.0499073 1.20461e-06)
(1.14695 -0.0477717 1.54006e-06)
(1.16484 -0.0444289 1.65853e-06)
(1.18114 -0.0401036 1.55879e-06)
(1.19555 -0.0350017 1.31009e-06)
(1.20784 -0.0292858 1.02565e-06)
(1.21787 -0.0230676 7.8437e-07)
(1.2255 -0.0164118 6.32197e-07)
(1.23061 -0.00935995 5.76831e-07)
(1.23305 -0.00193816 4.77958e-07)
(1.23268 0.00581475 6.35437e-07)
(1.22937 0.0138331 9.2374e-07)
(1.223 0.022016 1.14953e-06)
(1.21349 0.0302146 1.27608e-06)
(1.20083 0.0382299 1.30337e-06)
(1.18509 0.0458258 1.22563e-06)
(1.16647 0.0527406 1.06053e-06)
(1.14526 0.0587102 8.01411e-07)
(1.12187 0.0634826 5.36191e-07)
(1.09683 0.0668431 2.32955e-07)
(1.07073 0.0686192 -5.12338e-10)
(1.04424 0.0686937 -2.40451e-07)
(1.01801 0.0669974 -2.12872e-07)
(0.992815 0.0635016 -3.67913e-07)
(0.96921 0.0582223 -5.64041e-08)
(0.948085 0.0511734 -2.97621e-07)
(0.929782 0.0424474 3.76392e-07)
(0.9154 0.0320406 -2.41568e-07)
(0.90489 0.0202017 9.35385e-07)
(0.899751 0.00678823 -4.37146e-07)
(0.899286 -0.00748618 1.44728e-06)
(0.905507 -0.0232911 -8.86837e-07)
(0.917001 -0.0385848 1.53227e-06)
(0.935574 -0.0557403 -8.72851e-07)
(0.960467 -0.0694575 1.57322e-08)
(0.989644 -0.0864616 1.93688e-06)
(1.02917 -0.095077 -6.24483e-06)
(1.06253 -0.109943 1.13019e-05)
(1.11883 -0.110346 -2.07042e-05)
(1.1441 -0.120108 2.25693e-05)
(1.22134 -0.111309 -2.59005e-05)
(1.00016 -0.00620153 8.39015e-07)
(1.00407 -0.0184491 -1.51257e-06)
(1.01186 -0.0301167 -2.56714e-06)
(1.02342 -0.0407559 -1.80866e-06)
(1.03829 -0.0499581 -1.0818e-06)
(1.05588 -0.0573856 -7.43672e-07)
(1.07554 -0.0627835 -3.42768e-07)
(1.09654 -0.0660018 3.20665e-07)
(1.11813 -0.0670162 1.05224e-06)
(1.13955 -0.0659331 1.69327e-06)
(1.16012 -0.0629752 2.10086e-06)
(1.17927 -0.0584423 2.18067e-06)
(1.19661 -0.0526569 1.94853e-06)
(1.21185 -0.0459064 1.53078e-06)
(1.22483 -0.0384075 1.1014e-06)
(1.23544 -0.0302984 7.70175e-07)
(1.24357 -0.0216493 5.84382e-07)
(1.24911 -0.012496 5.37217e-07)
(1.25191 -0.00285715 5.16104e-07)
(1.25182 0.00723641 6.77425e-07)
(1.24867 0.0177119 1.04864e-06)
(1.2423 0.0284449 1.37647e-06)
(1.23259 0.0392417 1.57615e-06)
(1.21948 0.0498355 1.64232e-06)
(1.20303 0.0599058 1.57502e-06)
(1.18341 0.0690948 1.39058e-06)
(1.16095 0.077041 1.078e-06)
(1.1361 0.0834005 7.39785e-07)
(1.10942 0.0878832 3.69088e-07)
(1.08156 0.0902605 7.784e-08)
(1.05329 0.0903814 -2.26044e-07)
(1.02527 0.0881622 -2.17647e-07)
(0.998371 0.0835737 -4.13851e-07)
(0.973159 0.0766439 -7.40685e-08)
(0.950596 0.0673959 -3.72526e-07)
(0.931007 0.0559488 4.04857e-07)
(0.915609 0.0422935 -3.32506e-07)
(0.904267 0.026741 1.04599e-06)
(0.898735 0.00909176 -5.96317e-07)
(0.898087 -0.00973783 1.67411e-06)
(0.904854 -0.0306564 -1.15304e-06)
(0.917111 -0.0509218 1.93607e-06)
(0.937461 -0.0738004 -1.22094e-06)
(0.964351 -0.0919259 5.73412e-07)
(0.996262 -0.114775 1.7798e-06)
(1.03921 -0.125932 -6.10606e-06)
(1.07521 -0.146036 1.22391e-05)
(1.1367 -0.14637 -2.23632e-05)
(1.16346 -0.159567 2.44198e-05)
(1.24799 -0.14841 -2.86383e-05)
(1.00018 -0.00789486 9.16821e-07)
(1.00453 -0.0234892 -1.70623e-06)
(1.01321 -0.0383508 -2.92105e-06)
(1.0261 -0.0519035 -2.09731e-06)
(1.04268 -0.0636166 -1.28456e-06)
(1.06229 -0.0730471 -8.94804e-07)
(1.0842 -0.079853 -3.19468e-07)
(1.10757 -0.0838322 5.69276e-07)
(1.1315 -0.0849548 1.56832e-06)
(1.15511 -0.0833734 2.45526e-06)
(1.17762 -0.0794063 2.97917e-06)
(1.19841 -0.073481 2.98337e-06)
(1.21707 -0.0660482 2.52412e-06)
(1.23337 -0.0574959 1.83607e-06)
(1.24722 -0.0481 1.19042e-06)
(1.25856 -0.0380179 7.38976e-07)
(1.26732 -0.0273119 5.07537e-07)
(1.27342 -0.0159989 4.77758e-07)
(1.27671 -0.00407099 5.12713e-07)
(1.277 0.00845797 7.19963e-07)
(1.27408 0.02152 1.2248e-06)
(1.26772 0.0349743 1.703e-06)
(1.25775 0.0485792 2.00693e-06)
(1.24405 0.0619897 2.13504e-06)
(1.22665 0.0747856 2.08613e-06)
(1.20572 0.0864943 1.87295e-06)
(1.18159 0.0966371 1.4839e-06)
(1.15476 0.104762 1.04022e-06)
(1.1259 0.11049 5.58757e-07)
(1.09573 0.113534 2.00164e-07)
(1.06509 0.113709 -2.00728e-07)
(1.03474 0.110923 -2.24829e-07)
(1.00562 0.105155 -4.75174e-07)
(0.978332 0.0964512 -9.32167e-08)
(0.953927 0.0848493 -4.58641e-07)
(0.932702 0.070494 4.39103e-07)
(0.916027 0.0533707 -4.36761e-07)
(0.903649 0.0338334 1.18602e-06)
(0.897663 0.0116295 -7.20492e-07)
(0.896836 -0.0121625 1.90985e-06)
(0.904402 -0.0386699 -1.31306e-06)
(0.917761 -0.0644296 2.21166e-06)
(0.94047 -0.0936444 -1.39811e-06)
(0.970002 -0.116528 7.84647e-07)
(1.0051 -0.145884 1.66956e-06)
(1.05221 -0.159478 -6.44678e-06)
(1.09063 -0.185463 1.29204e-05)
(1.15815 -0.18548 -2.46277e-05)
(1.18578 -0.202512 2.59182e-05)
(1.27861 -0.18925 -3.16155e-05)
(1.00021 -0.0097953 1.01479e-06)
(1.00512 -0.0291453 -1.9192e-06)
(1.01493 -0.0476002 -3.37387e-06)
(1.02951 -0.0644351 -2.47487e-06)
(1.0483 -0.078978 -1.57392e-06)
(1.07054 -0.0906577 -1.1313e-06)
(1.09538 -0.0990182 -3.06822e-07)
(1.12183 -0.103788 9.18922e-07)
(1.14881 -0.104928 2.33232e-06)
(1.17526 -0.102651 3.61854e-06)
(1.20026 -0.097412 4.33131e-06)
(1.2231 -0.0898151 4.20606e-06)
(1.2434 -0.0804838 3.36595e-06)
(1.261 -0.0699325 2.24476e-06)
(1.2759 -0.0584989 1.24566e-06)
(1.28813 -0.0463473 6.26707e-07)
(1.29768 -0.0335137 3.70589e-07)
(1.30449 -0.0199756 3.95893e-07)
(1.30841 -0.00567741 4.34088e-07)
(1.3092 0.00940397 6.80335e-07)
(1.30659 0.0252211 1.42642e-06)
(1.30028 0.041623 2.14963e-06)
(1.28999 0.0583157 2.61057e-06)
(1.27554 0.0748621 2.83432e-06)
(1.2569 0.0907203 2.82153e-06)
(1.23424 0.105276 2.57449e-06)
(1.20793 0.117904 2.08391e-06)
(1.17853 0.128022 1.49309e-06)
(1.14683 0.13515 8.37099e-07)
(1.11365 0.138931 3.64519e-07)
(1.07998 0.139155 -1.71858e-07)
(1.04666 0.135729 -2.37627e-07)
(1.01475 0.128654 -5.53369e-07)
(0.984874 0.118006 -1.15371e-07)
(0.958192 0.103844 -5.41513e-07)
(0.934957 0.0863329 4.96688e-07)
(0.916735 0.0654594 -5.14976e-07)
(0.903111 0.0415827 1.35914e-06)
(0.896612 0.0144193 -7.1773e-07)
(0.895648 -0.0148845 2.07234e-06)
(0.90427 -0.0475786 -1.14693e-06)
(0.919168 -0.0795107 2.02972e-06)
(0.94457 -0.11572 -9.79557e-07)
(0.97728 -0.143647 1.65386e-08)
(1.01496 -0.180063 2.01836e-06)
(1.06641 -0.195688 -7.76735e-06)
(1.10522 -0.228111 1.31256e-05)
(1.17867 -0.227481 -2.73747e-05)
(1.20507 -0.24872 2.64585e-05)
(1.30593 -0.234047 -3.43734e-05)
(1.00023 -0.0119576 1.13367e-06)
(1.00585 -0.0355766 -2.11771e-06)
(1.01708 -0.0581357 -3.95278e-06)
(1.0338 -0.0787274 -2.95081e-06)
(1.05538 -0.0965194 -1.99651e-06)
(1.08097 -0.110779 -1.50059e-06)
(1.10957 -0.120893 -2.89899e-07)
(1.13999 -0.126495 1.4417e-06)
(1.17091 -0.127523 3.4948e-06)
(1.20101 -0.124273 5.38854e-06)
(1.22915 -0.117391 6.35436e-06)
(1.25454 -0.10774 5.99389e-06)
(1.27682 -0.0961806 4.54451e-06)
(1.29595 -0.0833843 2.73801e-06)
(1.31208 -0.0697489 1.14111e-06)
(1.32537 -0.0554203 3.19985e-07)
(1.33589 -0.0403858 9.10688e-08)
(1.34359 -0.0245516 1.83845e-07)
(1.3483 -0.00779939 3.22987e-07)
(1.34975 0.00997394 6.16113e-07)
(1.34758 0.0287628 1.64104e-06)
(1.34136 0.0484099 2.70374e-06)
(1.33068 0.0685595 3.41431e-06)
(1.31527 0.0886633 3.80119e-06)
(1.29503 0.108028 3.86072e-06)
(1.27013 0.125858 3.56387e-06)
(1.24098 0.141347 2.922e-06)
(1.20826 0.153745 2.12309e-06)
(1.1729 0.162452 1.22552e-06)
(1.13589 0.167041 5.79859e-07)
(1.09839 0.167281 -1.38224e-07)
(1.06136 0.163099 -2.55775e-07)
(1.02599 0.154535 -6.40113e-07)
(0.992946 0.141708 -1.21434e-07)
(0.963506 0.124717 -5.99243e-07)
(0.937858 0.103732 6.1722e-07)
(0.917797 0.0787576 -4.70416e-07)
(0.902711 0.050097 1.59684e-06)
(0.895605 0.0174746 -4.50928e-07)
(0.894595 -0.0180434 2.05876e-06)
(0.90442 -0.0576301 -3.21674e-07)
(0.921314 -0.0964679 9.97084e-07)
(0.948932 -0.140147 8.20164e-07)
(0.984732 -0.17302 -2.35603e-06)
(1.02217 -0.216539 3.98356e-06)
(1.07675 -0.233284 -1.00025e-05)
(1.11112 -0.272371 1.35401e-05)
(1.18877 -0.270897 -2.92089e-05)
(1.21006 -0.296658 2.63004e-05)
(1.31694 -0.28223 -3.61162e-05)
(1.00027 -0.0144462 1.27331e-06)
(1.00676 -0.0429653 -2.23361e-06)
(1.01973 -0.0702765 -4.70432e-06)
(1.03911 -0.0952273 -3.51581e-06)
(1.06418 -0.11682 -2.65759e-06)
(1.09401 -0.134102 -2.09695e-06)
(1.12742 -0.146242 -2.89628e-07)
(1.16295 -0.15274 2.25437e-06)
(1.19894 -0.153478 5.41119e-06)
(1.23371 -0.14886 8.23686e-06)
(1.26581 -0.139817 9.39811e-06)
(1.29432 -0.127587 8.44031e-06)
(1.31894 -0.113366 5.95563e-06)
(1.33984 -0.0980238 2.93203e-06)
(1.35739 -0.0820017 6.42787e-07)
(1.37193 -0.0653853 -2.37432e-07)
(1.38359 -0.0480775 -4.14977e-07)
(1.39238 -0.0298855 -3.04738e-07)
(1.3981 -0.0105762 -2.73644e-08)
(1.40041 0.0100533 3.80068e-07)
(1.39882 0.0320808 1.78897e-06)
(1.39275 0.0553571 3.24798e-06)
(1.3816 0.0794487 4.2815e-06)
(1.36497 0.103665 4.95827e-06)
(1.34268 0.127118 5.20475e-06)
(1.31487 0.14878 4.89526e-06)
(1.28205 0.167606 4.04451e-06)
(1.24504 0.182639 2.94637e-06)
(1.20499 0.193132 1.72336e-06)
(1.16312 0.198583 8.36431e-07)
(1.1208 0.198762 -1.10744e-07)
(1.07918 0.193638 -2.84923e-07)
(1.03958 0.183326 -7.2435e-07)
(1.00271 0.168006 -8.21805e-08)
(0.96997 0.147839 -5.81143e-07)
(0.94147 0.122981 8.49218e-07)
(0.919234 0.0934845 -2.24745e-07)
(0.902447 0.0595096 1.92241e-06)
(0.894562 0.0208224 2.31844e-07)
(0.893626 -0.0217406 1.86252e-06)
(0.904516 -0.0689444 1.57155e-06)
(0.92348 -0.115157 -9.28876e-07)
(0.951206 -0.166093 5.12454e-06)
(0.988224 -0.202922 -6.06327e-06)
(1.01957 -0.252519 9.60993e-06)
(1.07366 -0.268956 -1.17644e-05)
(1.09633 -0.314489 1.6072e-05)
(1.17469 -0.312563 -2.72173e-05)
(1.18621 -0.343332 2.71021e-05)
(1.29603 -0.332352 -3.60185e-05)
(1.00032 -0.0173366 1.43655e-06)
(1.00787 -0.0515171 -2.14684e-06)
(1.02295 -0.0844018 -5.69464e-06)
(1.04561 -0.114467 -4.09507e-06)
(1.07501 -0.140594 -3.76005e-06)
(1.1102 -0.161497 -3.07269e-06)
(1.14975 -0.17604 -5.14876e-07)
(1.19187 -0.18353 3.29936e-06)
(1.23444 -0.18373 8.55249e-06)
(1.27521 -0.17719 1.3075e-05)
(1.31228 -0.165262 1.43047e-05)
(1.34456 -0.149737 1.19046e-05)
(1.37189 -0.132288 7.12447e-06)
(1.39477 -0.114028 1.91612e-06)
(1.41392 -0.0954098 -8.98595e-07)
(1.42986 -0.0763917 -1.50533e-06)
(1.44284 -0.0567518 -1.53283e-06)
(1.4529 -0.0361479 -1.42918e-06)
(1.45982 -0.0141902 -1.10855e-06)
(1.46321 0.00947501 -4.69719e-07)
(1.4624 0.0350761 1.6352e-06)
(1.45655 0.0624729 3.55903e-06)
(1.44486 0.0911378 4.90059e-06)
(1.4267 0.120203 5.96079e-06)
(1.4018 0.148518 6.53939e-06)
(1.37026 0.174741 6.38637e-06)
(1.33271 0.197513 5.38704e-06)
(1.29018 0.215613 3.93434e-06)
(1.24414 0.228117 2.29283e-06)
(1.1961 0.234452 1.08027e-06)
(1.14778 0.234418 -1.21365e-07)
(1.10048 0.228067 -3.27004e-07)
(1.05575 0.215642 -7.77281e-07)
(1.01429 0.19741 4.27063e-08)
(0.977642 0.173623 -4.18436e-07)
(0.94581 0.144411 1.25151e-06)
(0.920998 0.109897 3.33198e-07)
(0.90221 0.0700081 2.42424e-06)
(0.893269 0.0245349 1.39156e-06)
(0.892449 -0.0259261 1.70829e-06)
(0.903699 -0.0811835 4.72979e-06)
(0.923391 -0.134326 -2.94088e-06)
(0.946741 -0.190806 1.25086e-05)
(0.979766 -0.229281 -9.85289e-06)
(0.997029 -0.282632 1.95022e-05)
(1.04455 -0.297409 -1.2373e-05)
(1.04919 -0.349329 2.06464e-05)
(1.12446 -0.348477 -2.11868e-05)
(1.12385 -0.385639 2.87051e-05)
(1.23467 -0.382877 -3.50941e-05)
(1.00038 -0.0207158 1.64272e-06)
(1.0092 -0.0614586 -1.68399e-06)
(1.02682 -0.100962 -6.99272e-06)
(1.05349 -0.137075 -4.47584e-06)
(1.08823 -0.168738 -5.5985e-06)
(1.13019 -0.194076 -4.51314e-06)
(1.17761 -0.211568 -1.34562e-06)
(1.22829 -0.220202 4.1671e-06)
(1.27944 -0.219482 1.29551e-05)
(1.32796 -0.210208 2.05634e-05)
(1.37128 -0.194386 2.21108e-05)
(1.40805 -0.174609 1.73605e-05)
(1.43839 -0.15321 7.4056e-06)
(1.46332 -0.131579 -1.32e-06)
(1.48406 -0.110112 -4.81627e-06)
(1.50139 -0.0885587 -4.81174e-06)
(1.51568 -0.0665419 -4.36996e-06)
(1.52704 -0.0435093 -4.36668e-06)
(1.53527 -0.0188339 -3.81935e-06)
(1.53993 0.00805482 -2.6647e-06)
(1.54011 0.0376407 1.69692e-07)
(1.53465 0.0697626 2.73295e-06)
(1.5224 0.103784 4.72535e-06)
(1.50247 0.138637 6.33759e-06)
(1.47438 0.172833 7.28289e-06)
(1.43819 0.20459 7.37583e-06)
(1.39465 0.23211 6.42237e-06)
(1.3451 0.253814 4.77711e-06)
(1.29145 0.268574 2.77111e-06)
(1.23565 0.275759 1.14797e-06)
(1.17984 0.27525 -2.9307e-07)
(1.12559 0.26725 -4.60297e-07)
(1.07466 0.252202 -8.18401e-07)
(1.02775 0.230508 2.6675e-07)
(0.986507 0.202539 -1.62679e-08)
(0.950811 0.168402 1.90246e-06)
(0.922918 0.128321 1.24103e-06)
(0.901734 0.0818652 3.19067e-06)
(0.891368 0.0287903 2.70057e-06)
(0.890331 -0.0301606 1.8691e-06)
(0.900122 -0.0928919 8.46712e-06)
(0.916265 -0.150702 -4.13983e-06)
(0.928298 -0.208865 2.05131e-05)
(0.948659 -0.245787 -1.38519e-05)
(0.94558 -0.300405 2.84029e-05)
(0.980852 -0.313865 -1.58519e-05)
(0.968238 -0.373855 2.18069e-05)
(1.03918 -0.376995 -1.79378e-05)
(1.03035 -0.42348 2.64539e-05)
(1.14231 -0.433696 -3.68058e-05)
(1.00046 -0.0246788 1.96402e-06)
(1.01075 -0.0730302 -6.47583e-07)
(1.0314 -0.120486 -8.61037e-06)
(1.06291 -0.163777 -4.32358e-06)
(1.10417 -0.20238 -8.60913e-06)
(1.15474 -0.233272 -6.13944e-06)
(1.21227 -0.254555 -2.84782e-06)
(1.27419 -0.264603 5.19513e-06)
(1.33662 -0.262346 1.86567e-05)
(1.3952 -0.249069 2.96729e-05)
(1.44628 -0.227846 3.15623e-05)
(1.48815 -0.2025 2.35267e-05)
(1.5214 -0.176256 6.25003e-06)
(1.54792 -0.150731 -7.23342e-06)
(1.56967 -0.126106 -1.19162e-05)
(1.58777 -0.101855 -1.12631e-05)
(1.60275 -0.0774298 -1.02354e-05)
(1.61494 -0.0520459 -1.041e-05)
(1.62422 -0.0246963 -9.47532e-06)
(1.63016 0.00551392 -6.69041e-06)
(1.63157 0.0395237 -4.96613e-06)
(1.6268 0.0771002 -3.09064e-06)
(1.61432 0.117454 3.48748e-07)
(1.59281 0.159274 3.79111e-06)
(1.56137 0.200647 6.11556e-06)
(1.51985 0.239219 6.8696e-06)
(1.46912 0.272572 6.1075e-06)
(1.41094 0.298608 4.51781e-06)
(1.34783 0.315914 2.54521e-06)
(1.28241 0.323835 8.01518e-07)
(1.21738 0.322437 -6.27482e-07)
(1.1547 0.312183 -6.3947e-07)
(1.09635 0.293823 -7.87546e-07)
(1.04302 0.267958 6.45667e-07)
(0.996418 0.235108 6.06924e-07)
(0.956269 0.19541 2.80495e-06)
(0.92465 0.149179 2.37674e-06)
(0.900574 0.0954462 3.99055e-06)
(0.888344 0.0340029 3.31275e-06)
(0.88577 -0.0331171 1.9893e-06)
(0.890147 -0.100605 1.05641e-05)
(0.894783 -0.158448 -5.51024e-06)
(0.887629 -0.213125 2.2908e-05)
(0.887378 -0.246648 -2.09032e-05)
(0.865363 -0.302999 2.77758e-05)
(0.889188 -0.319304 -2.65306e-05)
(0.871369 -0.391645 1.62772e-05)
(0.940542 -0.402194 -2.31083e-05)
(0.933761 -0.461025 1.89239e-05)
(1.04573 -0.4858 -4.1464e-05)
(1.00058 -0.029313 2.59466e-06)
(1.01247 -0.0864828 1.15103e-06)
(1.03677 -0.143576 -1.02579e-05)
(1.07393 -0.195374 -3.55427e-06)
(1.12313 -0.242951 -1.37349e-05)
(1.18466 -0.280891 -7.72778e-06)
(1.25516 -0.307309 -5.2858e-06)
(1.33199 -0.319247 8.87786e-06)
(1.40947 -0.314589 2.88188e-05)
(1.48114 -0.295328 3.9674e-05)
(1.54133 -0.266203 3.69371e-05)
(1.58789 -0.233199 2.07005e-05)
(1.62246 -0.200864 -3.14363e-06)
(1.64852 -0.170821 -1.87448e-05)
(1.66905 -0.142696 -2.19944e-05)
(1.68566 -0.115602 -1.92521e-05)
(1.69921 -0.0888584 -1.76701e-05)
(1.71048 -0.0614111 -1.81969e-05)
(1.71968 -0.0316908 -1.62512e-05)
(1.72656 0.00156477 -1.01469e-05)
(1.72956 0.039956 -1.18576e-05)
(1.72634 0.0835124 -1.54724e-05)
(1.71491 0.131303 -1.39364e-05)
(1.69328 0.181648 -8.60905e-06)
(1.65978 0.232002 -2.62996e-06)
(1.61361 0.27918 1.47723e-06)
(1.55549 0.319901 2.60766e-06)
(1.48761 0.351352 1.49018e-06)
(1.41338 0.371698 -4.15862e-07)
(1.33644 0.380252 -1.48712e-06)
(1.26036 0.377392 -2.03207e-06)
(1.18764 0.364038 -1.21902e-06)
(1.12056 0.341436 -6.90054e-07)
(1.05979 0.310484 1.30364e-06)
(1.00703 0.271899 1.61734e-06)
(0.961759 0.225978 4.0883e-06)
(0.92563 0.172985 3.69059e-06)
(0.898176 0.111185 4.34058e-06)
(0.883341 0.0411359 2.37348e-06)
(0.875928 -0.0317725 3.92754e-07)
(0.867889 -0.0984229 8.09336e-06)
(0.8515 -0.150449 -9.67028e-06)
(0.820839 -0.1988 1.57293e-05)
(0.800912 -0.232319 -3.03821e-05)
(0.772942 -0.296659 1.89815e-05)
(0.79553 -0.323481 -3.78069e-05)
(0.790321 -0.411977 1.21746e-05)
(0.86035 -0.431211 -3.05727e-05)
(0.8652 -0.501881 1.31323e-05)
(0.970662 -0.537746 -4.2745e-05)
(1.00073 -0.034665 3.95991e-06)
(1.01429 -0.102096 3.64797e-06)
(1.04294 -0.170839 -1.07203e-05)
(1.08632 -0.232735 -3.19523e-06)
(1.14539 -0.292289 -2.27032e-05)
(1.22061 -0.339108 -1.14321e-05)
(1.30751 -0.372772 -1.27302e-05)
(1.40435 -0.387193 1.43614e-05)
(1.5023 -0.379185 4.79709e-05)
(1.59065 -0.351073 5.65152e-05)
(1.65928 -0.309784 3.53924e-05)
(1.7063 -0.265462 -5.01156e-06)
(1.73626 -0.224914 -3.60281e-05)
(1.75566 -0.189339 -4.42664e-05)
(1.76902 -0.157249 -3.48511e-05)
(1.77858 -0.127329 -2.31835e-05)
(1.78573 -0.0987949 -2.03541e-05)
(1.79218 -0.0701676 -2.13656e-05)
(1.79866 -0.0390632 -1.97323e-05)
(1.80531 -0.00343694 -1.03773e-05)
(1.8106 0.0382036 -8.35672e-06)
(1.81134 0.0870403 -1.91274e-05)
(1.80469 0.14255 -2.7564e-05)
(1.78756 0.202802 -2.87248e-05)
(1.75687 0.264485 -2.4014e-05)
(1.71039 0.323125 -1.64821e-05)
(1.6479 0.373868 -9.82725e-06)
(1.57159 0.412613 -6.24507e-06)
(1.486 0.436939 -5.68021e-06)
(1.39637 0.446228 -5.5577e-06)
(1.30774 0.441364 -5.02907e-06)
(1.22357 0.423959 -2.93789e-06)
(1.14652 0.396007 -1.08975e-06)
(1.07736 0.358851 1.86041e-06)
(1.0177 0.313546 2.89002e-06)
(0.966525 0.260756 5.85118e-06)
(0.925095 0.200279 5.34349e-06)
(0.89391 0.129679 4.65208e-06)
(0.87464 0.0523473 8.92529e-08)
(0.856158 -0.0208612 -4.72921e-06)
(0.826927 -0.0794657 5.29677e-07)
(0.784422 -0.122743 -1.57234e-05)
(0.735971 -0.169384 5.53455e-06)
(0.710487 -0.213367 -3.29381e-05)
(0.695666 -0.295097 1.49338e-05)
(0.728872 -0.338425 -3.82549e-05)
(0.746569 -0.441302 1.73934e-05)
(0.815839 -0.466622 -3.08856e-05)
(0.834212 -0.544102 1.32695e-05)
(0.924004 -0.584508 -3.5392e-05)
(1.00075 -0.0407006 6.8123e-06)
(1.01626 -0.12021 6.41268e-06)
(1.04962 -0.202665 -6.83408e-06)
(1.09953 -0.276955 -5.59183e-06)
(1.17112 -0.352725 -3.55313e-05)
(1.26229 -0.410438 -2.5241e-05)
(1.37007 -0.454939 -3.71442e-05)
(1.49441 -0.472543 7.82145e-06)
(1.61942 -0.459144 6.45449e-05)
(1.72496 -0.417018 8.58731e-05)
(1.7932 -0.356646 4.75839e-05)
(1.82682 -0.29536 -3.01921e-05)
(1.8369 -0.243132 -7.96128e-05)
(1.83562 -0.200199 -7.57972e-05)
(1.82951 -0.163431 -4.11681e-05)
(1.82152 -0.131119 -1.26837e-05)
(1.81369 -0.102417 -9.12083e-06)
(1.80898 -0.0748178 -1.2072e-05)
(1.80918 -0.0451028 -1.09617e-05)
(1.8141 -0.00948605 -7.94856e-06)
(1.823 0.0331824 -1.12726e-06)
(1.83262 0.0848181 -7.29198e-06)
(1.83872 0.146344 -1.70442e-05)
(1.83645 0.21633 -2.62249e-05)
(1.8204 0.291099 -3.39635e-05)
(1.78558 0.364865 -3.77929e-05)
(1.72912 0.430384 -3.54067e-05)
(1.65178 0.480749 -2.82347e-05)
(1.55879 0.511716 -2.07347e-05)
(1.45774 0.522579 -1.44982e-05)
(1.35639 0.515279 -9.87166e-06)
(1.26011 0.492779 -5.21896e-06)
(1.17236 0.458245 -1.5776e-06)
(1.09426 0.413636 2.32322e-06)
(1.02716 0.360646 4.25818e-06)
(0.969297 0.30039 7.75305e-06)
(0.922161 0.231517 6.84325e-06)
(0.886755 0.152146 4.3045e-06)
(0.858859 0.0717758 -1.91483e-06)
(0.820988 0.00598503 -9.66661e-06)
(0.765304 -0.0402511 -6.47735e-06)
(0.702713 -0.0800527 -1.63771e-05)
(0.653157 -0.137909 4.3325e-06)
(0.640674 -0.204588 -2.27294e-05)
(0.650495 -0.308595 1.97189e-05)
(0.697681 -0.368303 -2.98132e-05)
(0.735787 -0.478564 2.5326e-05)
(0.800505 -0.50528 -2.43149e-05)
(0.828256 -0.583182 1.36993e-05)
(0.896984 -0.62162 -2.19154e-05)
(1.00041 -0.0473049 1.20066e-05)
(1.01868 -0.141086 1.01673e-05)
(1.05551 -0.238834 6.66161e-06)
(1.113 -0.329723 -1.11026e-05)
(1.1991 -0.426499 -4.3163e-05)
(1.30694 -0.498253 -5.91703e-05)
(1.44372 -0.560874 -8.46758e-05)
(1.6059 -0.583136 -1.66089e-05)
(1.7587 -0.554151 4.67958e-05)
(1.86422 -0.484143 9.56124e-05)
(1.90201 -0.393415 0.000113507)
(1.89143 -0.309158 2.83554e-05)
(1.85211 -0.24195 -6.06513e-05)
(1.80616 -0.190221 -6.79387e-05)
(1.76237 -0.148847 -1.38839e-05)
(1.72356 -0.11599 2.18316e-05)
(1.6916 -0.0906842 1.80118e-05)
(1.67065 -0.0686979 1.25532e-05)
(1.66378 -0.0454285 1.52373e-05)
(1.67005 -0.0163968 1.21157e-05)
(1.68832 0.0217593 8.98324e-06)
(1.71574 0.071588 1.22688e-05)
(1.74715 0.135102 1.4547e-05)
(1.77544 0.212007 1.08369e-05)
(1.79256 0.299277 1.6297e-07)
(1.79012 0.390557 -1.61502e-05)
(1.76102 0.476414 -3.26209e-05)
(1.7017 0.545889 -4.21813e-05)
(1.61533 0.590405 -4.19757e-05)
(1.51111 0.607161 -3.35732e-05)
(1.40078 0.598866 -2.24353e-05)
(1.29364 0.570857 -1.15182e-05)
(1.19536 0.528536 -3.62369e-06)
(1.10837 0.475134 2.34587e-06)
(1.03353 0.413634 5.62992e-06)
(0.968503 0.345231 8.96892e-06)
(0.915952 0.267021 5.84709e-06)
(0.87451 0.181073 3.40471e-07)
(0.830998 0.105223 -4.47266e-06)
(0.76774 0.0530871 -5.71895e-06)
(0.690313 0.0148991 -3.28353e-06)
(0.624073 -0.0353092 -6.82727e-06)
(0.590692 -0.118407 1.13176e-05)
(0.600406 -0.213781 -1.06065e-05)
(0.633105 -0.337638 2.24251e-05)
(0.689981 -0.409447 -2.29002e-05)
(0.740457 -0.51981 2.58043e-05)
(0.798637 -0.543618 -1.66634e-05)
(0.83136 -0.616778 9.1231e-06)
(0.879212 -0.647994 -7.73484e-06)
(0.999634 -0.0543394 1.92875e-05)
(1.02148 -0.164238 2.01826e-05)
(1.05817 -0.278445 3.37647e-05)
(1.12596 -0.392733 -1.16704e-05)
(1.22289 -0.513842 -2.25635e-05)
(1.34983 -0.609324 -0.000109684)
(1.52927 -0.702978 -0.000124499)
(1.73441 -0.724767 -4.5688e-05)
(1.88602 -0.651183 1.36198e-05)
(1.9254 -0.519389 3.67535e-05)
(1.86357 -0.379601 0.000153527)
(1.75741 -0.271205 0.000122682)
(1.62516 -0.19199 1.9922e-05)
(1.51233 -0.136736 -1.13547e-05)
(1.42394 -0.096229 3.91514e-05)
(1.35667 -0.0694807 5.12178e-05)
(1.30867 -0.0555713 1.51619e-05)
(1.28548 -0.0476329 5.1514e-06)
(1.28851 -0.0394224 1.50531e-05)
(1.31481 -0.0257104 1.75639e-05)
(1.3612 -0.000564451 1.73529e-05)
(1.42245 0.040652 2.68815e-05)
(1.49259 0.101364 4.10243e-05)
(1.56405 0.181198 5.33167e-05)
(1.62812 0.278314 5.43848e-05)
(1.67479 0.386741 4.00781e-05)
(1.69391 0.496004 1.44993e-05)
(1.67676 0.591607 -1.46016e-05)
(1.62089 0.659152 -3.63269e-05)
(1.53289 0.690657 -4.26506e-05)
(1.4266 0.687184 -3.55706e-05)
(1.31588 0.656183 -2.1499e-05)
(1.21073 0.606232 -8.93946e-06)
(1.11663 0.543286 1.00989e-07)
(1.03439 0.472791 5.27021e-06)
(0.962683 0.395228 7.15213e-06)
(0.905159 0.307614 6.24291e-08)
(0.853429 0.220617 -7.84164e-06)
(0.787664 0.157011 -1.10005e-05)
(0.700584 0.117534 -6.63721e-06)
(0.615352 0.0743011 3.13061e-06)
(0.562494 -0.00151097 3.91476e-06)
(0.552978 -0.117091 1.41552e-05)
(0.582725 -0.239503 -7.20627e-06)
(0.630375 -0.377318 1.6797e-05)
(0.691429 -0.456592 -2.08774e-05)
(0.747881 -0.56228 1.85404e-05)
(0.799659 -0.580139 -1.01699e-05)
(0.835016 -0.64494 1.04374e-06)
(0.865192 -0.664843 4.25149e-06)
(0.998901 -0.0615562 2.65074e-05)
(1.02282 -0.187558 4.13724e-05)
(1.05577 -0.320268 6.68491e-05)
(1.13335 -0.463847 1.20338e-05)
(1.22936 -0.612521 4.03277e-05)
(1.38802 -0.754699 -0.000181905)
(1.61509 -0.887 -7.2551e-05)
(1.82621 -0.8658 -0.000145775)
(1.88531 -0.775912 5.17049e-05)
(1.78921 -0.530978 -0.000145443)
(1.55535 -0.301026 -0.000106999)
(1.28939 -0.156097 -4.8576e-05)
(0.882113 -0.0450211 -2.4058e-05)
(0.786459 -0.0265677 -1.50737e-05)
(0.737986 -0.0164222 5.70283e-05)
(0.713502 -0.0182911 3.44892e-05)
(0.711664 -0.0327086 -2.20758e-05)
(0.741775 -0.0505451 -1.51493e-05)
(0.798157 -0.0649252 -5.89136e-07)
(0.873294 -0.0698643 6.92489e-09)
(0.962982 -0.0588734 1.91686e-06)
(1.06328 -0.0265903 1.00365e-05)
(1.16867 0.030155 1.58892e-05)
(1.27388 0.113101 4.40966e-05)
(1.37446 0.219673 6.77541e-05)
(1.46234 0.344468 7.13607e-05)
(1.52783 0.477665 5.58512e-05)
(1.55963 0.603177 2.56308e-05)
(1.54906 0.701534 -9.84749e-06)
(1.49605 0.757934 -3.39313e-05)
(1.41167 0.7688 -3.93285e-05)
(1.31104 0.741517 -2.95373e-05)
(1.20825 0.687255 -1.61637e-05)
(1.11238 0.616242 -5.05633e-06)
(1.0253 0.537212 1.15518e-06)
(0.949394 0.449681 -2.95274e-07)
(0.886456 0.355207 -1.07537e-05)
(0.818827 0.274894 -1.76649e-05)
(0.72932 0.226375 -1.46149e-05)
(0.628973 0.189676 -2.77966e-06)
(0.552223 0.12551 8.85849e-06)
(0.522033 0.014732 7.15598e-06)
(0.53486 -0.132635 8.77579e-06)
(0.578375 -0.276504 -1.06437e-05)
(0.634421 -0.422717 7.04886e-06)
(0.696124 -0.505987 -2.00848e-05)
(0.754934 -0.604527 9.22064e-06)
(0.800825 -0.614535 -4.15998e-06)
(0.837553 -0.668515 -7.40961e-06)