0 	3.6924e-09
1.57135 	5.8807e-07
3.1427 	7.80816e-06
4.71405 	3.77785e-05
6.28539 	0.000115572
7.85674 	0.000275011
9.42809 	0.000554006
10.9994 	0.00100931
12.5708 	0.00181689
14.1421 	0.00540273
