/*--------------------------------*- C++ -*----------------------------------*\
  =========                 |
  \\      /  F ield         | OpenFOAM: The Open Source CFD Toolbox
   \\    /   O peration     | Website:  https://openfoam.org
    \\  /    A nd           | Version:  8
     \\/     M anipulation  |
\*---------------------------------------------------------------------------*/
FoamFile
{
    version     2.0;
    format      ascii;
    class       volScalarField;
    location    "2";
    object      p;
}
// * * * * * * * * * * * * * * * * * * * * * * * * * * * * * * * * * * * * * //

dimensions      [0 2 -2 0 0 0 0];

internalField   nonuniform List<scalar> 
400
(
3.80615e-17
4.75441e-16
1.38024e-15
2.19246e-15
2.75832e-15
3.12898e-15
3.42e-15
3.62064e-15
3.75417e-15
3.8082e-15
3.83391e-15
3.73451e-15
3.65625e-15
3.57939e-15
3.33689e-15
2.99546e-15
2.60493e-15
2.04938e-15
1.20685e-15
3.18169e-16
6.61871e-16
1.09235e-15
1.82423e-15
2.39524e-15
2.93298e-15
3.27818e-15
3.49959e-15
3.74688e-15
3.8605e-15
3.91362e-15
3.92534e-15
3.83894e-15
3.71935e-15
3.70171e-15
3.46495e-15
3.14427e-15
2.77658e-15
2.24495e-15
1.65217e-15
9.67294e-16
1.64233e-15
1.92009e-15
2.34129e-15
2.79848e-15
3.21166e-15
3.53156e-15
3.69239e-15
3.8961e-15
4.00702e-15
4.03503e-15
4.01936e-15
4.00354e-15
3.87351e-15
3.78754e-15
3.64722e-15
3.4378e-15
3.07386e-15
2.69979e-15
2.18574e-15
1.82312e-15
2.59624e-15
2.74944e-15
2.94624e-15
3.26199e-15
3.52531e-15
3.76227e-15
3.97375e-15
4.22238e-15
4.39096e-15
4.2975e-15
4.15014e-15
4.10774e-15
4.01546e-15
3.92959e-15
3.84019e-15
3.81642e-15
3.46733e-15
3.25651e-15
2.79391e-15
2.64112e-15
3.35208e-15
3.43539e-15
3.50135e-15
3.72165e-15
4.01251e-15
4.21475e-15
4.4516e-15
4.56002e-15
4.55694e-15
4.54066e-15
4.53194e-15
4.46165e-15
4.23144e-15
4.1861e-15
4.27325e-15
4.20103e-15
3.94999e-15
3.64852e-15
3.3995e-15
3.3512e-15
3.73751e-15
4.07879e-15
4.03107e-15
4.1164e-15
4.4995e-15
4.56732e-15
4.77334e-15
4.97325e-15
4.85003e-15
4.90829e-15
4.87073e-15
4.90159e-15
4.70979e-15
4.6131e-15
4.63e-15
4.58622e-15
4.35945e-15
4.08085e-15
3.95123e-15
3.72411e-15
4.37103e-15
4.47183e-15
4.30821e-15
4.52607e-15
4.97384e-15
4.94546e-15
5.00373e-15
5.27033e-15
5.24931e-15
5.37126e-15
5.36161e-15
5.31417e-15
5.14598e-15
5.00506e-15
4.98689e-15
4.92656e-15
4.91386e-15
4.61382e-15
4.24276e-15
4.14448e-15
4.55434e-15
4.74771e-15
4.94859e-15
5.29733e-15
5.22303e-15
5.56843e-15
5.2612e-15
5.47542e-15
5.57208e-15
5.74211e-15
5.88156e-15
5.73764e-15
5.5738e-15
5.19746e-15
5.27178e-15
5.51375e-15
5.13625e-15
4.7249e-15
4.80883e-15
4.81599e-15
5.43461e-15
5.29548e-15
5.49912e-15
5.8248e-15
5.8402e-15
5.78065e-15
5.53566e-15
5.72675e-15
5.59382e-15
6.19948e-15
6.49376e-15
5.87437e-15
5.6728e-15
5.54276e-15
5.44065e-15
5.41912e-15
5.43155e-15
5.05e-15
5.0177e-15
5.18034e-15
5.5563e-15
6.00038e-15
6.00414e-15
6.38308e-15
6.55131e-15
5.9871e-15
5.64811e-15
5.93834e-15
6.09213e-15
6.23229e-15
6.49078e-15
6.39198e-15
6.2375e-15
5.80859e-15
5.53848e-15
5.71082e-15
5.59916e-15
5.20017e-15
5.37412e-15
5.45305e-15
5.91315e-15
6.13681e-15
6.49316e-15
6.9324e-15
7.3602e-15
6.208e-15
6.30276e-15
6.18242e-15
6.34877e-15
6.31051e-15
6.94571e-15
6.6926e-15
6.52113e-15
6.36421e-15
5.58365e-15
5.41788e-15
5.46576e-15
5.67106e-15
5.68752e-15
5.70145e-15
6.25803e-15
6.57088e-15
6.88514e-15
7.50451e-15
7.5675e-15
6.55661e-15
7.03027e-15
6.84147e-15
6.79542e-15
6.79374e-15
7.25809e-15
6.77809e-15
6.49171e-15
6.3954e-15
5.84682e-15
5.57285e-15
5.17996e-15
5.46449e-15
5.92926e-15
5.75207e-15
6.79603e-15
6.95929e-15
7.60777e-15
8.11794e-15
7.82002e-15
7.29124e-15
7.42603e-15
7.1598e-15
7.51452e-15
7.79957e-15
7.54438e-15
6.8975e-15
6.42419e-15
6.11676e-15
6.31239e-15
5.87599e-15
5.28598e-15
5.39369e-15
5.56785e-15
6.27149e-15
6.54335e-15
7.20259e-15
8.31841e-15
8.84997e-15
8.16423e-15
7.75838e-15
7.98851e-15
7.50289e-15
7.88892e-15
8.12272e-15
7.52889e-15
6.89593e-15
6.82024e-15
6.29783e-15
6.1095e-15
6.19367e-15
5.79674e-15
5.51491e-15
6.17801e-15
6.97002e-15
7.50868e-15
8.15452e-15
9.12641e-15
9.7558e-15
9.00361e-15
7.6221e-15
7.53277e-15
7.32405e-15
7.8432e-15
8.09919e-15
8.20657e-15
6.63841e-15
6.52492e-15
6.49357e-15
5.98016e-15
6.03866e-15
6.33141e-15
5.99158e-15
6.83459e-15
7.73525e-15
8.75357e-15
9.58634e-15
9.72986e-15
9.91005e-15
9.90209e-15
8.31698e-15
7.56507e-15
7.70088e-15
7.33729e-15
8.07967e-15
7.81457e-15
6.70334e-15
6.42035e-15
6.6597e-15
5.76441e-15
5.86288e-15
6.34269e-15
6.44291e-15
7.44444e-15
8.47577e-15
9.44349e-15
1.01492e-14
9.87732e-15
9.51214e-15
9.56817e-15
9.13981e-15
8.16922e-15
7.6053e-15
7.28851e-15
7.76086e-15
7.87474e-15
6.58402e-15
6.07737e-15
6.13342e-15
5.93776e-15
6.38566e-15
6.55157e-15
6.92152e-15
7.86413e-15
8.81785e-15
1.00534e-14
1.00891e-14
9.78986e-15
9.35621e-15
9.50094e-15
9.26601e-15
8.94391e-15
7.60405e-15
6.98684e-15
7.81537e-15
7.8438e-15
6.20563e-15
5.33259e-15
6.01342e-15
6.3898e-15
6.65164e-15
7.18466e-15
7.60003e-15
8.18679e-15
9.48799e-15
1.00409e-14
9.79897e-15
9.415e-15
9.34038e-15
9.84133e-15
9.72596e-15
9.34959e-15
8.67314e-15
7.25788e-15
6.69832e-15
6.92242e-15
5.54032e-15
5.15098e-15
6.00668e-15
6.31382e-15
6.89604e-15
7.00615e-15
7.51616e-15
8.80189e-15
9.74201e-15
9.35166e-15
9.89773e-15
9.13118e-15
8.04741e-15
9.78762e-15
1.00448e-14
9.23524e-15
8.29789e-15
6.94116e-15
6.65345e-15
6.31559e-15
5.29951e-15
5.43729e-15
5.89506e-15
6.22808e-15
6.46526e-15
7.64399e-15
8.11258e-15
9.24776e-15
9.45827e-15
)
;

boundaryField
{
    movingWall
    {
        type            zeroGradient;
    }
    fixedWalls
    {
        type            zeroGradient;
    }
    left
    {
        type            cyclic;
    }
    right
    {
        type            cyclic;
    }
    frontAndBack
    {
        type            empty;
    }
}


// ************************************************************************* //
