/*--------------------------------*- C++ -*----------------------------------*\
  =========                 |
  \\      /  F ield         | OpenFOAM: The Open Source CFD Toolbox
   \\    /   O peration     | Website:  https://openfoam.org
    \\  /    A nd           | Version:  8
     \\/     M anipulation  |
\*---------------------------------------------------------------------------*/
FoamFile
{
    version     2.0;
    format      ascii;
    class       surfaceScalarField;
    location    "2";
    object      phi;
}
// * * * * * * * * * * * * * * * * * * * * * * * * * * * * * * * * * * * * * //

dimensions      [0 3 -1 0 0 0 0];

internalField   nonuniform List<scalar> 
760
(
1.24974e-06
6.7545e-22
1.24974e-06
3.19994e-22
1.24974e-06
-8.6438e-22
1.24974e-06
-1.14358e-22
1.24974e-06
-8.24799e-23
1.24974e-06
4.42798e-23
1.24974e-06
4.16648e-22
1.24974e-06
1.0397e-22
1.24974e-06
4.49199e-23
1.24974e-06
7.68958e-23
1.24974e-06
2.5131e-22
1.24974e-06
1.00651e-22
1.24974e-06
2.18384e-22
1.24974e-06
-1.53459e-22
1.24974e-06
-2.59326e-22
1.24974e-06
-2.33793e-22
1.24974e-06
-1.50551e-22
1.24974e-06
-9.59965e-23
1.24974e-06
-8.5509e-22
5.13412e-23
3.74922e-06
-1.2117e-22
3.74922e-06
-2.39845e-22
3.74922e-06
-3.44581e-22
3.74922e-06
-4.27947e-22
3.74922e-06
5.55017e-23
3.74922e-06
1.71755e-22
3.74922e-06
5.75689e-22
3.74922e-06
6.59291e-22
3.74922e-06
3.48831e-22
3.74922e-06
4.66025e-22
3.74922e-06
6.30182e-22
3.74922e-06
9.60026e-23
3.74922e-06
-1.59583e-22
3.74922e-06
1.77698e-22
3.74922e-06
-3.28223e-22
3.74922e-06
-6.45061e-22
3.74922e-06
-1.83823e-22
3.74922e-06
-5.53579e-22
3.74922e-06
-3.70634e-22
-4.01162e-22
6.24872e-06
-3.05089e-23
6.24872e-06
-6.37067e-22
6.24872e-06
-2.88686e-22
6.24872e-06
-8.98646e-23
6.24872e-06
3.53074e-22
6.24872e-06
9.61995e-22
6.24872e-06
8.12113e-22
6.24872e-06
2.70501e-22
6.24872e-06
-5.025e-22
6.24872e-06
-1.24123e-22
6.24872e-06
2.93054e-22
6.24872e-06
5.41022e-23
6.24872e-06
-6.47727e-22
6.24872e-06
-8.24605e-22
6.24872e-06
-6.31627e-22
6.24872e-06
-9.41416e-22
6.24872e-06
-1.14269e-22
6.24872e-06
-1.10729e-22
6.24872e-06
2.93218e-22
-1.49011e-22
8.74825e-06
7.33854e-22
8.74825e-06
4.60201e-22
8.74825e-06
5.29206e-22
8.74825e-06
3.53301e-22
8.74825e-06
-3.0598e-22
8.74825e-06
1.87044e-22
8.74825e-06
2.57552e-22
8.74825e-06
9.97897e-22
8.74825e-06
1.28229e-21
8.74825e-06
-1.66833e-22
8.74825e-06
-1.84602e-21
8.74825e-06
-2.60039e-21
8.74825e-06
-2.49141e-21
8.74825e-06
-2.55042e-21
8.74825e-06
-2.44303e-21
8.74825e-06
-7.52814e-22
8.74825e-06
1.9296e-22
8.74825e-06
2.02037e-21
8.74825e-06
1.63308e-21
1.14408e-21
1.12478e-05
3.00894e-21
1.12478e-05
9.45092e-22
1.12478e-05
1.03064e-21
1.12478e-05
1.09933e-21
1.12478e-05
8.92397e-25
1.12478e-05
9.30104e-22
1.12478e-05
1.51577e-21
1.12478e-05
7.46273e-22
1.12478e-05
6.40027e-22
1.12478e-05
-1.3859e-21
1.12478e-05
-2.60804e-21
1.12478e-05
-4.71661e-21
1.12478e-05
-5.26518e-21
1.12478e-05
-4.11757e-21
1.12478e-05
-1.79092e-21
1.12478e-05
7.38527e-23
1.12478e-05
1.94636e-21
1.12478e-05
3.08473e-21
1.12478e-05
2.70064e-21
3.52005e-21
1.37475e-05
1.20504e-21
1.37475e-05
2.39735e-21
1.37475e-05
2.74887e-21
1.37475e-05
1.12352e-21
1.37475e-05
3.63015e-22
1.37475e-05
4.33108e-22
1.37475e-05
1.45956e-21
1.37475e-05
7.50761e-22
1.37475e-05
-6.56592e-22
1.37475e-05
-2.72625e-21
1.37475e-05
-4.97844e-21
1.37475e-05
-5.5917e-21
1.37475e-05
-5.64246e-21
1.37475e-05
-3.53777e-21
1.37475e-05
-7.61348e-22
1.37475e-05
1.74002e-21
1.37475e-05
2.3687e-21
1.37475e-05
3.4155e-21
1.37475e-05
4.65121e-21
3.09499e-21
1.62471e-05
3.86473e-21
1.62471e-05
2.90896e-21
1.62471e-05
6.13732e-22
1.62471e-05
-1.0574e-21
1.62471e-05
1.18509e-21
1.62471e-05
-1.71464e-21
1.62471e-05
-1.29749e-22
1.62471e-05
-5.12891e-23
1.62471e-05
-1.50777e-21
1.62471e-05
-3.4974e-21
1.62471e-05
-6.49792e-21
1.62471e-05
-6.52533e-21
1.62471e-05
-5.79366e-21
1.62471e-05
-1.58354e-21
1.62471e-05
1.04081e-21
1.62471e-05
1.66628e-21
1.62471e-05
5.2129e-21
1.62471e-05
6.61149e-21
1.62471e-05
3.27784e-21
1.63267e-21
1.87469e-05
7.57051e-22
1.87469e-05
1.8095e-21
1.87469e-05
4.90995e-22
1.87469e-05
-2.49038e-22
1.87469e-05
-2.38511e-21
1.87469e-05
-7.27308e-22
1.87469e-05
-1.83527e-21
1.87469e-05
-1.89795e-21
1.87469e-05
-1.46707e-21
1.87469e-05
-5.74944e-21
1.87469e-05
-8.11358e-21
1.87469e-05
-5.99627e-21
1.87469e-05
-3.76665e-21
1.87469e-05
-1.86891e-21
1.87469e-05
2.69842e-21
1.87469e-05
6.45449e-21
1.87469e-05
5.26898e-21
1.87469e-05
5.64824e-21
1.87469e-05
6.38296e-21
4.8628e-21
2.12467e-05
7.1983e-21
2.12467e-05
2.18219e-21
2.12467e-05
8.67613e-22
2.12467e-05
-1.53974e-21
2.12467e-05
-4.07127e-21
2.12467e-05
-2.33916e-21
2.12467e-05
-2.43747e-21
2.12467e-05
-3.38444e-21
2.12467e-05
-5.94764e-21
2.12467e-05
-4.52197e-21
2.12467e-05
-5.58764e-21
2.12467e-05
-8.51087e-21
2.12467e-05
-6.93783e-21
2.12467e-05
-1.86683e-21
2.12467e-05
2.86884e-21
2.12467e-05
4.14453e-21
2.12467e-05
6.10987e-21
2.12467e-05
6.91832e-21
2.12467e-05
6.6943e-21
7.22009e-21
2.37467e-05
7.34503e-21
2.37467e-05
6.81601e-21
2.37467e-05
2.62434e-21
2.37467e-05
-1.13532e-21
2.37467e-05
-5.10344e-21
2.37467e-05
-3.27767e-21
2.37467e-05
-7.12454e-21
2.37467e-05
-5.43528e-21
2.37467e-05
-6.3996e-21
2.37467e-05
-6.27323e-21
2.37467e-05
-8.86042e-21
2.37467e-05
-6.76047e-21
2.37467e-05
-4.936e-21
2.37467e-05
-4.01778e-21
2.37467e-05
2.02717e-21
2.37467e-05
6.77786e-21
2.37467e-05
7.48831e-21
2.37467e-05
5.87505e-21
2.37467e-05
7.50879e-21
8.4313e-21
2.62467e-05
8.2649e-21
2.62467e-05
6.75421e-21
2.62467e-05
4.3873e-21
2.62467e-05
8.95772e-23
2.62467e-05
-4.99709e-22
2.62467e-05
-4.1288e-21
2.62467e-05
-8.50428e-21
2.62467e-05
-9.91375e-21
2.62467e-05
-9.48944e-21
2.62467e-05
-1.00512e-20
2.62467e-05
-7.90136e-21
2.62467e-05
-4.67629e-21
2.62467e-05
-1.58278e-21
2.62467e-05
-1.60525e-22
2.62467e-05
-3.7365e-23
2.62467e-05
2.97995e-21
2.62467e-05
8.48693e-21
2.62467e-05
9.67178e-21
2.62467e-05
8.30593e-21
1.01363e-20
2.87467e-05
7.1909e-21
2.87467e-05
7.61935e-21
2.87467e-05
2.87705e-21
2.87467e-05
1.38116e-22
2.87467e-05
-7.60174e-22
2.87467e-05
-6.87045e-21
2.87467e-05
-8.17636e-21
2.87467e-05
-9.81333e-21
2.87467e-05
-1.25309e-20
2.87467e-05
-1.36536e-20
2.87467e-05
-7.3925e-21
2.87467e-05
-2.75216e-21
2.87467e-05
1.29107e-21
2.87467e-05
3.93238e-21
2.87467e-05
6.73366e-23
2.87467e-05
1.77696e-21
2.87467e-05
5.66607e-21
2.87467e-05
9.05153e-21
2.87467e-05
1.17425e-20
6.47972e-21
3.12469e-05
1.12694e-20
3.12469e-05
7.34577e-21
3.12469e-05
1.71198e-21
3.12469e-05
-1.58569e-21
3.12469e-05
-2.84337e-21
3.12469e-05
-7.19425e-21
3.12469e-05
-1.14632e-20
3.12469e-05
-1.17724e-20
3.12469e-05
-1.1416e-20
3.12469e-05
-9.09458e-21
3.12469e-05
-3.98808e-21
3.12469e-05
3.18634e-22
3.12469e-05
1.3729e-21
3.12469e-05
4.59824e-21
3.12469e-05
7.09603e-21
3.12469e-05
4.08942e-21
3.12469e-05
3.4806e-21
3.12469e-05
7.58366e-21
3.12469e-05
5.24051e-21
5.00737e-21
3.37471e-05
1.91096e-21
3.37471e-05
1.25459e-21
3.37471e-05
-8.40755e-22
3.37471e-05
-4.69045e-21
3.37471e-05
-7.1546e-21
3.37471e-05
-5.78309e-21
3.37471e-05
-7.51911e-21
3.37471e-05
-1.04432e-20
3.37471e-05
-9.8741e-21
3.37471e-05
-6.76937e-21
3.37471e-05
-6.91537e-21
3.37471e-05
3.28732e-21
3.37471e-05
8.59504e-21
3.37471e-05
7.67627e-21
3.37471e-05
9.57271e-21
3.37471e-05
8.85387e-21
3.37471e-05
4.44889e-21
3.37471e-05
4.84534e-21
3.37471e-05
3.94543e-21
3.43205e-21
3.62475e-05
-1.41502e-21
3.62475e-05
-3.68169e-21
3.62475e-05
8.67641e-24
3.62475e-05
9.71968e-23
3.62475e-05
-8.63949e-21
3.62475e-05
-1.19261e-20
3.62475e-05
-1.1574e-20
3.62475e-05
-1.49953e-20
3.62475e-05
-8.05526e-21
3.62475e-05
-7.51205e-21
3.62475e-05
-2.89888e-22
3.62475e-05
3.29541e-21
3.62475e-05
8.99658e-21
3.62475e-05
9.56554e-21
3.62475e-05
1.09013e-20
3.62475e-05
9.06594e-21
3.62475e-05
6.68642e-21
3.62475e-05
4.15385e-21
3.62475e-05
3.25321e-21
2.10595e-21
3.87478e-05
1.10482e-21
3.87478e-05
1.0757e-21
3.87478e-05
3.44221e-21
3.87478e-05
4.76209e-21
3.87478e-05
-1.00992e-21
3.87478e-05
-1.27388e-20
3.87478e-05
-1.52969e-20
3.87478e-05
-1.19305e-20
3.87478e-05
-1.08472e-20
3.87478e-05
-5.81152e-21
3.87478e-05
-2.67133e-21
3.87478e-05
4.49017e-21
3.87478e-05
1.04639e-20
3.87478e-05
1.26771e-20
3.87478e-05
7.11487e-21
3.87478e-05
3.27716e-21
3.87478e-05
4.47701e-21
3.87478e-05
2.64704e-21
3.87478e-05
3.36411e-21
3.84363e-21
4.12482e-05
1.25012e-21
4.12482e-05
4.49161e-21
4.12482e-05
5.35981e-21
4.12482e-05
4.81839e-21
4.12482e-05
-8.85199e-22
4.12482e-05
-8.02973e-21
4.12482e-05
-1.47141e-20
4.12482e-05
-1.15367e-20
4.12482e-05
-8.62356e-21
4.12482e-05
-7.00959e-21
4.12482e-05
-1.84005e-21
4.12482e-05
5.31402e-21
4.12482e-05
1.21038e-20
4.12482e-05
8.39146e-21
4.12482e-05
2.76587e-21
4.12482e-05
2.04236e-21
4.12482e-05
-2.8512e-23
4.12482e-05
5.53173e-22
4.12482e-05
4.37281e-21
2.3957e-21
4.37487e-05
4.97741e-21
4.37487e-05
5.15908e-21
4.37487e-05
6.50016e-21
4.37487e-05
4.31942e-21
4.37487e-05
-1.83772e-21
4.37487e-05
-8.0315e-21
4.37487e-05
-1.05438e-20
4.37487e-05
-1.60705e-20
4.37487e-05
-1.005e-20
4.37487e-05
1.74913e-21
4.37487e-05
3.93109e-21
4.37487e-05
6.72658e-21
4.37487e-05
6.7452e-21
4.37487e-05
5.6912e-21
4.37487e-05
3.44348e-21
4.37487e-05
3.06417e-23
4.37487e-05
2.3602e-21
4.37487e-05
3.79326e-21
4.37487e-05
2.30461e-21
5.25445e-21
4.62492e-05
6.95972e-21
4.62492e-05
8.71153e-22
4.62492e-05
4.02473e-21
4.62492e-05
1.02551e-20
4.62492e-05
1.14856e-21
4.62492e-05
-4.2409e-21
4.62492e-05
-4.15153e-21
4.62492e-05
-3.85851e-21
4.62492e-05
-3.33704e-21
4.62492e-05
-2.37187e-21
4.62492e-05
2.74787e-21
4.62492e-05
2.97706e-21
4.62492e-05
1.61582e-21
4.62492e-05
3.58909e-21
4.62492e-05
2.065e-21
4.62492e-05
2.56145e-21
4.62492e-05
-3.37381e-21
4.62492e-05
-1.71987e-21
4.62492e-05
1.12508e-21
6.33296e-21
4.87497e-05
4.87497e-05
4.87497e-05
4.87497e-05
4.87497e-05
4.87497e-05
4.87497e-05
4.87497e-05
4.87497e-05
4.87497e-05
4.87497e-05
4.87497e-05
4.87497e-05
4.87497e-05
4.87497e-05
4.87497e-05
4.87497e-05
4.87497e-05
4.87497e-05
)
;

boundaryField
{
    movingWall
    {
        type            calculated;
        value           uniform 0;
    }
    fixedWalls
    {
        type            calculated;
        value           uniform 0;
    }
    left
    {
        type            cyclic;
        value           nonuniform List<scalar> 
20
(
-3.87478e-05
-3.62475e-05
-3.37471e-05
-3.12469e-05
-2.87467e-05
-2.62467e-05
-2.37467e-05
-2.12467e-05
-1.87469e-05
-1.62471e-05
-1.37475e-05
-1.12478e-05
-8.74825e-06
-6.24872e-06
-3.74922e-06
-1.24974e-06
-4.12482e-05
-4.37487e-05
-4.62492e-05
-4.87497e-05
)
;
    }
    right
    {
        type            cyclic;
        value           nonuniform List<scalar> 
20
(
3.87478e-05
3.62475e-05
3.37471e-05
3.12469e-05
2.87467e-05
2.62467e-05
2.37467e-05
2.12467e-05
1.87469e-05
1.62471e-05
1.37475e-05
1.12478e-05
8.74825e-06
6.24872e-06
3.74922e-06
1.24974e-06
4.12482e-05
4.37487e-05
4.62492e-05
4.87497e-05
)
;
    }
    frontAndBack
    {
        type            empty;
        value           nonuniform List<scalar> 0();
    }
}


// ************************************************************************* //
