/*--------------------------------*- C++ -*----------------------------------*\
  =========                 |
  \\      /  F ield         | OpenFOAM: The Open Source CFD Toolbox
   \\    /   O peration     | Website:  https://openfoam.org
    \\  /    A nd           | Version:  8
     \\/     M anipulation  |
\*---------------------------------------------------------------------------*/
FoamFile
{
    version     2.0;
    format      ascii;
    class       volVectorField;
    location    "2";
    object      U;
}
// * * * * * * * * * * * * * * * * * * * * * * * * * * * * * * * * * * * * * //

dimensions      [0 1 -1 0 0 0 0];

internalField   nonuniform List<vector> 
400
(
(0.0249947 3.06361e-17 0)
(0.0249947 1.55178e-17 0)
(0.0249947 -7.06483e-18 0)
(0.0249947 -1.8922e-18 0)
(0.0249947 -2.06812e-18 0)
(0.0249947 -1.07084e-19 0)
(0.0249947 3.9075e-18 0)
(0.0249947 6.66958e-19 0)
(0.0249947 6.17754e-19 0)
(0.0249947 9.27115e-19 0)
(0.0249947 2.82485e-18 0)
(0.0249947 7.73911e-19 0)
(0.0249947 3.25403e-18 0)
(0.0249947 -1.49389e-18 0)
(0.0249947 -3.04167e-18 0)
(0.0249947 -2.93223e-18 0)
(0.0249947 -2.15948e-18 0)
(0.0249947 -2.34738e-18 0)
(0.0249947 -7.08536e-18 0)
(0.0249947 1.32371e-17 0)
(0.0749843 8.47448e-18 0)
(0.0749843 1.59653e-17 0)
(0.0749843 -9.552e-18 0)
(0.0749843 -4.80183e-18 0)
(0.0749843 1.02482e-18 0)
(0.0749843 2.67717e-18 0)
(0.0749843 9.70727e-18 0)
(0.0749843 8.37494e-18 0)
(0.0749843 3.55019e-18 0)
(0.0749843 6.15542e-18 0)
(0.0749843 1.12136e-17 0)
(0.0749843 4.63777e-18 0)
(0.0749843 2.88078e-18 0)
(0.0749843 3.58873e-18 0)
(0.0749843 -4.32975e-18 0)
(0.0749843 -7.57075e-18 0)
(0.0749843 -2.8742e-18 0)
(0.0749843 -7.0269e-18 0)
(0.0749843 -1.03953e-17 0)
(0.0749843 8.90373e-18 0)
(0.124974 9.45042e-18 0)
(0.124974 -1.28689e-17 0)
(0.124974 -5.35211e-18 0)
(0.124974 -3.24278e-18 0)
(0.124974 5.37105e-18 0)
(0.124974 1.23243e-17 0)
(0.124974 1.51283e-17 0)
(0.124974 8.20156e-18 0)
(0.124974 -6.55042e-19 0)
(0.124974 4.97545e-18 0)
(0.124974 1.21444e-17 0)
(0.124974 6.31516e-18 0)
(0.124974 -2.76693e-18 0)
(0.124974 -2.8151e-18 0)
(0.124974 -6.10384e-18 0)
(0.124974 -1.47459e-17 0)
(0.124974 -2.98352e-18 0)
(0.124974 -5.56809e-18 0)
(0.124974 -3.19804e-18 0)
(0.124974 -9.80376e-18 0)
(0.174965 -1.34352e-18 0)
(0.174965 -3.93515e-18 0)
(0.174965 2.58701e-18 0)
(0.174965 3.10457e-18 0)
(0.174965 8.04384e-19 0)
(0.174965 1.17949e-17 0)
(0.174965 1.13595e-17 0)
(0.174965 1.36083e-17 0)
(0.174965 7.52486e-18 0)
(0.174965 -2.09032e-19 0)
(0.174965 -1.30671e-17 0)
(0.174965 -2.24955e-17 0)
(0.174965 -2.93624e-17 0)
(0.174965 -3.30107e-17 0)
(0.174965 -3.27965e-17 0)
(0.174965 -1.87992e-17 0)
(0.174965 -1.15108e-18 0)
(0.174965 1.68414e-17 0)
(0.174965 2.02748e-17 0)
(0.174965 7.91211e-18 0)
(0.224956 4.09921e-17 0)
(0.224956 1.5088e-17 0)
(0.224956 1.65256e-17 0)
(0.224956 1.47644e-17 0)
(0.224956 -3.28759e-18 0)
(0.224956 1.41618e-17 0)
(0.224956 1.98283e-17 0)
(0.224956 2.18614e-17 0)
(0.224956 2.31292e-17 0)
(0.224956 -1.45977e-17 0)
(0.224956 -4.32168e-17 0)
(0.224956 -7.22294e-17 0)
(0.224956 -8.02631e-17 0)
(0.224956 -7.20854e-17 0)
(0.224956 -4.59916e-17 0)
(0.224956 -1.0086e-17 0)
(0.224956 1.91558e-17 0)
(0.224956 5.17994e-17 0)
(0.224956 4.6401e-17 0)
(0.224956 5.09932e-17 0)
(0.274949 4.25502e-17 0)
(0.274949 3.62422e-17 0)
(0.274949 3.80886e-17 0)
(0.274949 2.35461e-17 0)
(0.274949 4.75437e-18 0)
(0.274949 1.56917e-17 0)
(0.274949 3.54416e-17 0)
(0.274949 1.92973e-17 0)
(0.274949 4.09083e-18 0)
(0.274949 -3.94143e-17 0)
(0.274949 -7.30056e-17 0)
(0.274949 -1.08737e-16 0)
(0.274949 -1.12208e-16 0)
(0.274949 -8.01711e-17 0)
(0.274949 -3.03316e-17 0)
(0.274949 1.52817e-17 0)
(0.274949 4.51079e-17 0)
(0.274949 6.74765e-17 0)
(0.274949 7.468e-17 0)
(0.274949 6.74773e-17 0)
(0.324943 4.6143e-17 0)
(0.324943 5.16088e-17 0)
(0.324943 3.67198e-17 0)
(0.324943 2.35662e-18 0)
(0.324943 2.28705e-17 0)
(0.324943 -1.11667e-17 0)
(0.324943 1.6948e-17 0)
(0.324943 9.2253e-18 0)
(0.324943 -1.97134e-17 0)
(0.324943 -5.82094e-17 0)
(0.324943 -1.18055e-16 0)
(0.324943 -1.17926e-16 0)
(0.324943 -1.17049e-16 0)
(0.324943 -5.22179e-17 0)
(0.324943 3.38157e-18 0)
(0.324943 3.69456e-17 0)
(0.324943 7.82544e-17 0)
(0.324943 1.00526e-16 0)
(0.324943 7.86071e-17 0)
(0.324943 4.14044e-17 0)
(0.374938 4.11393e-17 0)
(0.374938 4.00673e-17 0)
(0.374938 1.24886e-17 0)
(0.374938 -8.14775e-18 0)
(0.374938 -1.18278e-17 0)
(0.374938 -1.82727e-17 0)
(0.374938 -2.1054e-17 0)
(0.374938 -1.89833e-17 0)
(0.374938 -2.82176e-17 0)
(0.374938 -9.38106e-17 0)
(0.374938 -1.47409e-16 0)
(0.374938 -1.25847e-16 0)
(0.374938 -9.29325e-17 0)
(0.374938 -3.08569e-17 0)
(0.374938 4.32848e-17 0)
(0.374938 8.56155e-17 0)
(0.374938 1.04899e-16 0)
(0.374938 1.26439e-16 0)
(0.374938 9.14842e-17 0)
(0.374938 6.09465e-17 0)
(0.424935 7.62121e-17 0)
(0.424935 4.1151e-17 0)
(0.424935 4.01547e-18 0)
(0.424935 -2.10489e-17 0)
(0.424935 -6.59443e-17 0)
(0.424935 -3.48088e-17 0)
(0.424935 -4.14067e-17 0)
(0.424935 -5.22262e-17 0)
(0.424935 -7.52231e-17 0)
(0.424935 -1.04221e-16 0)
(0.424935 -1.34348e-16 0)
(0.424935 -1.53212e-16 0)
(0.424935 -1.06718e-16 0)
(0.424935 -3.22041e-17 0)
(0.424935 6.01965e-17 0)
(0.424935 1.08787e-16 0)
(0.424935 1.19442e-16 0)
(0.424935 1.21546e-16 0)
(0.424935 1.3372e-16 0)
(0.424935 1.1992e-16 0)
(0.474933 1.50723e-16 0)
(0.474933 8.72518e-17 0)
(0.474933 3.20933e-17 0)
(0.474933 -3.6694e-17 0)
(0.474933 -9.973e-17 0)
(0.474933 -6.16552e-17 0)
(0.474933 -9.97694e-17 0)
(0.474933 -8.70349e-17 0)
(0.474933 -1.21314e-16 0)
(0.474933 -1.05312e-16 0)
(0.474933 -1.51519e-16 0)
(0.474933 -1.50665e-16 0)
(0.474933 -1.26621e-16 0)
(0.474933 -6.36502e-17 0)
(0.474933 5.31394e-17 0)
(0.474933 1.13228e-16 0)
(0.474933 1.35062e-16 0)
(0.474933 1.28846e-16 0)
(0.474933 1.44035e-16 0)
(0.474933 1.61842e-16 0)
(0.524933 1.61216e-16 0)
(0.524933 1.35588e-16 0)
(0.524933 7.51964e-17 0)
(0.524933 -9.61664e-18 0)
(0.524933 -6.0115e-17 0)
(0.524933 -7.39557e-17 0)
(0.524933 -1.56038e-16 0)
(0.524933 -1.54133e-16 0)
(0.524933 -1.60007e-16 0)
(0.524933 -1.66906e-16 0)
(0.524933 -1.68561e-16 0)
(0.524933 -1.20833e-16 0)
(0.524933 -7.01473e-17 0)
(0.524933 -4.80996e-17 0)
(0.524933 1.15027e-17 0)
(0.524933 9.88926e-17 0)
(0.524933 1.57159e-16 0)
(0.524933 1.60702e-16 0)
(0.524933 1.5971e-16 0)
(0.524933 1.90781e-16 0)
(0.574935 1.54226e-16 0)
(0.574935 1.5665e-16 0)
(0.574935 7.71045e-17 0)
(0.574935 1.00812e-17 0)
(0.574935 6.87889e-19 0)
(0.574935 -1.06438e-16 0)
(0.574935 -1.60471e-16 0)
(0.574935 -1.97282e-16 0)
(0.574935 -2.24455e-16 0)
(0.574935 -2.4266e-16 0)
(0.574935 -1.56114e-16 0)
(0.574935 -8.09239e-17 0)
(0.574935 -4.61363e-18 0)
(0.574935 2.85777e-17 0)
(0.574935 -1.10648e-17 0)
(0.574935 3.41782e-17 0)
(0.574935 1.46739e-16 0)
(0.574935 1.8341e-16 0)
(0.574935 2.0358e-16 0)
(0.574935 1.69526e-16 0)
(0.624938 1.95323e-16 0)
(0.624938 1.5216e-16 0)
(0.624938 5.57912e-17 0)
(0.624938 -5.76913e-18 0)
(0.624938 -3.4245e-17 0)
(0.624938 -1.32355e-16 0)
(0.624938 -1.96232e-16 0)
(0.624938 -2.16504e-16 0)
(0.624938 -2.38938e-16 0)
(0.624938 -2.29647e-16 0)
(0.624938 -1.17962e-16 0)
(0.624938 -1.90896e-17 0)
(0.624938 2.12e-17 0)
(0.624938 8.31616e-17 0)
(0.624938 6.61636e-17 0)
(0.624938 5.1817e-17 0)
(0.624938 8.01898e-17 0)
(0.624938 1.71118e-16 0)
(0.624938 1.72797e-16 0)
(0.624938 1.1278e-16 0)
(0.674943 1.31902e-16 0)
(0.674943 9.01236e-17 0)
(0.674943 6.79378e-18 0)
(0.674943 -6.64491e-17 0)
(0.674943 -1.0266e-16 0)
(0.674943 -1.32594e-16 0)
(0.674943 -1.92712e-16 0)
(0.674943 -2.22434e-16 0)
(0.674943 -2.1337e-16 0)
(0.674943 -1.54956e-16 0)
(0.674943 -1.04382e-16 0)
(0.674943 3.603e-17 0)
(0.674943 1.05941e-16 0)
(0.674943 1.28413e-16 0)
(0.674943 1.7179e-16 0)
(0.674943 1.34914e-16 0)
(0.674943 8.49978e-17 0)
(0.674943 1.24858e-16 0)
(0.674943 9.15137e-17 0)
(0.674943 8.94437e-17 0)
(0.724949 2.63441e-19 0)
(0.724949 -2.7948e-17 0)
(0.724949 -1.95751e-17 0)
(0.724949 -5.92316e-17 0)
(0.724949 -1.60167e-16 0)
(0.724949 -1.86378e-16 0)
(0.724949 -1.94847e-16 0)
(0.724949 -2.59927e-16 0)
(0.724949 -1.81534e-16 0)
(0.724949 -1.39274e-16 0)
(0.724949 -6.78624e-17 0)
(0.724949 6.86682e-17 0)
(0.724949 1.85102e-16 0)
(0.724949 1.81569e-16 0)
(0.724949 2.2188e-16 0)
(0.724949 1.91298e-16 0)
(0.724949 1.18852e-16 0)
(0.724949 9.10855e-17 0)
(0.724949 7.24007e-17 0)
(0.724949 5.53344e-17 0)
(0.774956 -4.87545e-18 0)
(0.774956 -3.5317e-17 0)
(0.774956 3.17359e-17 0)
(0.774956 4.54474e-17 0)
(0.774956 -1.06236e-16 0)
(0.774956 -2.47007e-16 0)
(0.774956 -2.77402e-16 0)
(0.774956 -2.75615e-16 0)
(0.774956 -1.93119e-16 0)
(0.774956 -1.404e-16 0)
(0.774956 -3.0983e-17 0)
(0.774956 8.82915e-17 0)
(0.774956 1.96665e-16 0)
(0.774956 2.35691e-16 0)
(0.774956 1.87613e-16 0)
(0.774956 1.35667e-16 0)
(0.774956 1.11923e-16 0)
(0.774956 6.7976e-17 0)
(0.774956 6.27349e-17 0)
(0.774956 5.09678e-17 0)
(0.824965 1.91949e-17 0)
(0.824965 6.02529e-17 0)
(0.824965 9.30163e-17 0)
(0.824965 1.0062e-16 0)
(0.824965 -2.31807e-17 0)
(0.824965 -2.13163e-16 0)
(0.824965 -3.03894e-16 0)
(0.824965 -2.3664e-16 0)
(0.824965 -2.00329e-16 0)
(0.824965 -1.3355e-16 0)
(0.824965 -4.72254e-17 0)
(0.824965 9.5165e-17 0)
(0.824965 2.35528e-16 0)
(0.824965 2.11388e-16 0)
(0.824965 1.00348e-16 0)
(0.824965 4.69995e-17 0)
(0.824965 5.21433e-17 0)
(0.824965 3.34696e-17 0)
(0.824965 7.18156e-17 0)
(0.824965 5.8458e-17 0)
(0.874974 6.60173e-17 0)
(0.874974 9.97327e-17 0)
(0.874974 1.25252e-16 0)
(0.874974 9.79927e-17 0)
(0.874974 -2.20431e-17 0)
(0.874974 -1.6973e-16 0)
(0.874974 -2.564e-16 0)
(0.874974 -2.85589e-16 0)
(0.874974 -1.92118e-16 0)
(0.874974 -5.36219e-17 0)
(0.874974 2.03723e-17 0)
(0.874974 1.20446e-16 0)
(0.874974 1.91196e-16 0)
(0.874974 1.41148e-16 0)
(0.874974 5.83255e-17 0)
(0.874974 1.92621e-17 0)
(0.874974 1.7327e-17 0)
(0.874974 4.36358e-17 0)
(0.874974 7.80532e-17 0)
(0.874974 8.40193e-17 0)
(0.924984 1.3219e-16 0)
(0.924984 6.25455e-17 0)
(0.924984 1.12568e-16 0)
(0.924984 1.61169e-16 0)
(0.924984 -2.5798e-19 0)
(0.924984 -1.24085e-16 0)
(0.924984 -1.5768e-16 0)
(0.924984 -2.06563e-16 0)
(0.924984 -1.40147e-16 0)
(0.924984 -8.85182e-18 0)
(0.924984 6.97576e-17 0)
(0.924984 1.05846e-16 0)
(0.924984 8.39074e-17 0)
(0.924984 9.63318e-17 0)
(0.924984 5.16475e-17 0)
(0.924984 2.34653e-17 0)
(0.924984 -1.89362e-17 0)
(0.924984 1.96073e-17 0)
(0.924984 3.91095e-17 0)
(0.924984 1.32736e-16 0)
(0.974995 7.49448e-17 0)
(0.974995 7.8417e-18 0)
(0.974995 3.90232e-17 0)
(0.974995 1.06515e-16 0)
(0.974995 1.71257e-17 0)
(0.974995 -3.82411e-17 0)
(0.974995 -4.41284e-17 0)
(0.974995 -4.88314e-17 0)
(0.974995 -4.37364e-17 0)
(0.974995 -2.65263e-17 0)
(0.974995 2.77722e-17 0)
(0.974995 2.65195e-17 0)
(0.974995 1.90153e-17 0)
(0.974995 3.68517e-17 0)
(0.974995 2.41096e-17 0)
(0.974995 1.86712e-17 0)
(0.974995 -3.4621e-17 0)
(0.974995 -1.64755e-17 0)
(0.974995 1.78641e-17 0)
(0.974995 7.22006e-17 0)
)
;

boundaryField
{
    movingWall
    {
        type            fixedValue;
        value           uniform (1 0 0);
    }
    fixedWalls
    {
        type            noSlip;
    }
    left
    {
        type            cyclic;
    }
    right
    {
        type            cyclic;
    }
    frontAndBack
    {
        type            empty;
    }
}


// ************************************************************************* //
