/*--------------------------------*- C++ -*----------------------------------*\
  =========                 |
  \\      /  F ield         | OpenFOAM: The Open Source CFD Toolbox
   \\    /   O peration     | Website:  https://openfoam.org
    \\  /    A nd           | Version:  8
     \\/     M anipulation  |
\*---------------------------------------------------------------------------*/
FoamFile
{
    version     2.0;
    format      ascii;
    class       surfaceScalarField;
    location    "0.34";
    object      phi;
}
// * * * * * * * * * * * * * * * * * * * * * * * * * * * * * * * * * * * * * //

dimensions      [0 3 -1 0 0 0 0];

internalField   nonuniform List<scalar> 
760
(
1.42315e-08
-1.42661e-08
-2.22105e-08
3.64421e-08
-1.14267e-07
9.20567e-08
-2.45487e-07
1.3122e-07
-3.96086e-07
1.506e-07
-5.47349e-07
1.51263e-07
-6.83169e-07
1.3582e-07
-7.90636e-07
1.07468e-07
-8.60178e-07
6.95414e-08
-8.8561e-07
2.54325e-08
-8.64289e-07
-2.13211e-08
-7.97361e-07
-6.6929e-08
-6.90062e-07
-1.07299e-07
-5.51955e-07
-1.38107e-07
-3.96931e-07
-1.55024e-07
-2.42742e-07
-1.54189e-07
-1.09731e-07
-1.33012e-07
-1.84166e-08
-9.13149e-08
1.56885e-08
-3.41055e-08
1.56886e-08
-3.42147e-08
1.99483e-08
-1.80371e-07
1.82598e-07
-4.3398e-07
3.45666e-07
-7.64418e-07
4.61658e-07
-1.13219e-06
5.1837e-07
-1.49721e-06
5.16287e-07
-1.8233e-06
4.61906e-07
-2.08049e-06
3.6466e-07
-2.24623e-06
2.35276e-07
-2.30599e-06
8.51957e-08
-2.25385e-06
-7.34595e-08
-2.093e-06
-2.27777e-07
-1.83622e-06
-3.64082e-07
-1.50601e-06
-4.6832e-07
-1.13406e-06
-5.26975e-07
-7.59505e-07
-5.28741e-07
-4.25392e-07
-4.67126e-07
-1.72689e-07
-3.44018e-07
-3.08019e-08
-1.75993e-07
-1.51132e-08
-9.22262e-08
1.12174e-07
-3.56989e-07
4.47361e-07
-7.64542e-07
7.53219e-07
-1.26846e-06
9.65575e-07
-1.81466e-06
1.06457e-06
-2.34899e-06
1.05062e-06
-2.82237e-06
9.35282e-07
-3.19387e-06
7.36159e-07
-3.43253e-06
4.73937e-07
-3.51843e-06
1.71097e-07
-3.44349e-06
-1.48397e-07
-3.21218e-06
-4.59087e-07
-2.84204e-06
-7.34225e-07
-2.36375e-06
-9.46611e-07
-1.82027e-06
-1.07045e-06
-1.26446e-06
-1.08456e-06
-7.54505e-07
-9.77079e-07
-3.46963e-07
-7.5156e-07
-8.73341e-08
-4.35622e-07
-1.02448e-07
-1.45207e-07
2.57381e-07
-5.25449e-07
8.27602e-07
-1.08161e-06
1.30938e-06
-1.74747e-06
1.63144e-06
-2.45427e-06
1.77137e-06
-3.13629e-06
1.73265e-06
-3.73519e-06
1.53418e-06
-4.2028e-06
1.20376e-06
-4.5028e-06
7.73941e-07
-4.61181e-06
2.80103e-07
-4.52014e-06
-2.40063e-07
-4.23263e-06
-7.46602e-07
-3.76927e-06
-1.19758e-06
-3.16556e-06
-1.55032e-06
-2.47182e-06
-1.76419e-06
-1.75103e-06
-1.80534e-06
-1.07448e-06
-1.65362e-06
-5.15126e-07
-1.31092e-06
-1.39312e-07
-8.11436e-07
-2.4176e-07
-1.93605e-07
4.50986e-07
-6.84983e-07
1.31898e-06
-1.38559e-06
2.00998e-06
-2.20719e-06
2.45303e-06
-3.06539e-06
2.62957e-06
-3.88368e-06
2.55094e-06
-4.59638e-06
2.24689e-06
-5.15045e-06
1.75783e-06
-5.5063e-06
1.1298e-06
-5.63838e-06
4.12176e-07
-5.53561e-06
-3.42828e-07
-5.20224e-06
-1.07997e-06
-4.65876e-06
-1.74106e-06
-3.94285e-06
-2.26623e-06
-3.10963e-06
-2.59742e-06
-2.23044e-06
-2.68453e-06
-1.3896e-06
-2.49446e-06
-6.78482e-07
-2.02204e-06
-1.87763e-07
-1.30216e-06
-4.29522e-07
-2.39935e-07
6.90921e-07
-8.40331e-07
1.91938e-06
-1.68325e-06
2.8529e-06
-2.657e-06
3.42678e-06
-3.66075e-06
3.63333e-06
-4.60766e-06
3.49785e-06
-5.42623e-06
3.06545e-06
-6.06043e-06
2.39203e-06
-6.46921e-06
1.53857e-06
-6.62591e-06
5.6887e-07
-6.51818e-06
-4.50556e-07
-6.14867e-06
-1.44948e-06
-5.53642e-06
-2.3533e-06
-4.71882e-06
-3.08383e-06
-3.75338e-06
-3.56287e-06
-2.71842e-06
-3.71949e-06
-1.7115e-06
-3.50138e-06
-8.44645e-07
-2.8889e-06
-2.36175e-07
-1.91063e-06
-6.65697e-07
-2.8674e-07
9.77661e-07
-9.9707e-07
2.6297e-06
-1.98205e-06
3.83788e-06
-3.10489e-06
4.54963e-06
-4.24788e-06
4.77632e-06
-5.31473e-06
4.56469e-06
-6.23001e-06
3.98074e-06
-6.93706e-06
3.09908e-06
-7.39537e-06
1.99688e-06
-7.5785e-06
7.52004e-07
-7.47304e-06
-5.56014e-07
-7.079e-06
-1.84352e-06
-6.41179e-06
-3.02052e-06
-5.5055e-06
-3.99011e-06
-4.417e-06
-4.65137e-06
-3.22933e-06
-4.90716e-06
-2.05292e-06
-4.67778e-06
-1.02252e-06
-3.9193e-06
-2.88278e-07
-2.64487e-06
-9.53974e-07
-3.36328e-07
1.31399e-06
-1.16036e-06
3.45374e-06
-2.28799e-06
4.96551e-06
-3.55496e-06
5.81659e-06
-4.82657e-06
6.04793e-06
-5.999e-06
5.73712e-06
-6.99596e-06
4.97769e-06
-7.76343e-06
3.86655e-06
-8.26439e-06
2.49784e-06
-8.47452e-06
9.62131e-07
-8.37987e-06
-6.50662e-07
-7.97681e-06
-2.24658e-06
-7.2745e-06
-3.72283e-06
-6.29989e-06
-4.96472e-06
-5.10463e-06
-5.84664e-06
-3.7725e-06
-6.23929e-06
-2.42487e-06
-6.02541e-06
-1.22074e-06
-5.12343e-06
-3.47705e-07
-3.5179e-06
-1.30168e-06
-3.90956e-07
1.70494e-06
-1.33488e-06
4.39766e-06
-2.60496e-06
6.2356e-06
-4.00592e-06
7.21755e-06
-5.38678e-06
7.42879e-06
-6.63971e-06
6.99005e-06
-7.69239e-06
6.03037e-06
-8.49841e-06
4.67258e-06
-9.02836e-06
3.02779e-06
-9.26286e-06
1.19664e-06
-9.18859e-06
-7.24933e-07
-8.79743e-06
-2.63774e-06
-8.08932e-06
-4.43094e-06
-7.07898e-06
-5.97506e-06
-5.8063e-06
-7.11932e-06
-4.34903e-06
-7.69656e-06
-2.8348e-06
-7.53964e-06
-1.44709e-06
-6.51114e-06
-4.18097e-07
-4.54689e-06
-1.71977e-06
-4.53454e-07
2.1584e-06
-1.52568e-06
5.46989e-06
-2.93488e-06
7.6448e-06
-4.45011e-06
8.73278e-06
-5.90633e-06
8.885e-06
-7.19781e-06
8.28154e-06
-8.26366e-06
7.09621e-06
-9.07207e-06
5.48099e-06
-9.60688e-06
3.56259e-06
-9.8576e-06
1.44736e-06
-9.81343e-06
-7.69105e-07
-9.46138e-06
-2.98979e-06
-8.78911e-06
-5.10321e-06
-7.793e-06
-6.97116e-06
-6.49221e-06
-8.42012e-06
-4.94797e-06
-9.2408e-06
-3.28511e-06
-9.2025e-06
-1.70868e-06
-8.08758e-06
-5.03587e-07
-5.75198e-06
-2.22336e-06
-5.28337e-07
2.68673e-06
-1.73966e-06
6.68122e-06
-3.27798e-06
9.18311e-06
-4.87163e-06
1.03264e-05
-6.34702e-06
1.03604e-05
-7.61084e-06
9.54535e-06
-8.62437e-06
8.10975e-06
-9.37971e-06
6.23632e-06
-9.88101e-06
4.0639e-06
-1.01316e-05
1.6979e-06
-1.01258e-05
-7.74855e-07
-9.84635e-06
-3.26924e-06
-9.266e-06
-5.68356e-06
-8.35635e-06
-7.88082e-06
-7.1047e-06
-9.67176e-06
-5.5407e-06
-1.08048e-05
-3.77071e-06
-1.09725e-05
-2.01217e-06
-9.84612e-06
-6.09688e-07
-7.15446e-06
-2.83305e-06
-6.23668e-07
3.3104e-06
-1.98739e-06
8.04494e-06
-3.63192e-06
1.08276e-05
-5.24195e-06
1.19365e-05
-6.6476e-06
1.1766e-05
-7.78452e-06
1.06823e-05
-8.65106e-06
8.9763e-06
-9.27436e-06
6.85962e-06
-9.6866e-06
4.47613e-06
-9.90988e-06
1.92118e-06
-9.94729e-06
-7.37439e-07
-9.77864e-06
-3.43789e-06
-9.36093e-06
-6.10126e-06
-8.63565e-06
-8.6061e-06
-7.54641e-06
-1.0761e-05
-6.0716e-06
-1.22796e-05
-4.27428e-06
-1.27698e-05
-2.36365e-06
-1.17567e-05
-7.44777e-07
-8.77334e-06
-3.57783e-06
-7.54078e-07
4.06448e-06
-2.28436e-06
9.57522e-06
-3.98703e-06
1.25303e-05
-5.50913e-06
1.34586e-05
-6.70966e-06
1.29666e-05
-7.57862e-06
1.15512e-05
-8.17013e-06
9.56781e-06
-8.55772e-06
7.2472e-06
-8.80783e-06
4.72624e-06
-8.96515e-06
2.07851e-06
-9.04447e-06
-6.58123e-07
-9.02584e-06
-3.45651e-06
-8.85268e-06
-6.27442e-06
-8.43489e-06
-9.02389e-06
-7.66296e-06
-1.15329e-05
-6.44204e-06
-1.35005e-05
-4.75628e-06
-1.44556e-05
-2.76676e-06
-1.37463e-05
-9.22436e-07
-1.06177e-05
-4.50026e-06
-9.45208e-07
5.00969e-06
-2.6485e-06
1.12785e-05
-4.31101e-06
1.41928e-05
-5.57333e-06
1.47209e-05
-6.37073e-06
1.3764e-05
-6.78334e-06
1.19638e-05
-6.94056e-06
9.72503e-06
-6.9698e-06
7.27644e-06
-6.97285e-06
4.72929e-06
-7.01657e-06
2.12223e-06
-7.12867e-06
-5.46024e-07
-7.29382e-06
-3.29136e-06
-7.44869e-06
-6.11955e-06
-7.47793e-06
-8.99465e-06
-7.21797e-06
-1.17929e-05
-6.48278e-06
-1.42357e-05
-5.13345e-06
-1.58049e-05
-3.21499e-06
-1.56647e-05
-1.16439e-06
-1.26683e-05
-5.66465e-06
-1.23732e-06
6.24701e-06
-3.0833e-06
1.31245e-05
-4.50772e-06
1.56173e-05
-5.23451e-06
1.54477e-05
-5.35526e-06
1.38847e-05
-5.08188e-06
1.16905e-05
-4.63095e-06
9.2741e-06
-4.17932e-06
6.82481e-06
-3.85442e-06
4.40439e-06
-3.73708e-06
2.00489e-06
-3.86519e-06
-4.17921e-07
-4.23269e-06
-2.92386e-06
-4.78213e-06
-5.57011e-06
-5.39111e-06
-8.38567e-06
-5.85853e-06
-1.13255e-05
-5.9066e-06
-1.41877e-05
-5.23283e-06
-1.64787e-05
-3.66628e-06
-1.72313e-05
-1.50008e-06
-1.48345e-05
-7.16473e-06
-1.67381e-06
7.92082e-06
-3.51337e-06
1.49641e-05
-4.31532e-06
1.64192e-05
-4.0889e-06
1.52213e-05
-3.19309e-06
1.29889e-05
-1.99879e-06
1.04962e-05
-7.952e-07
8.07052e-06
2.19273e-07
5.81034e-06
9.18165e-07
3.7055e-06
1.22554e-06
1.69752e-06
1.102e-06
-2.94381e-07
5.40998e-07
-2.36286e-06
-4.22985e-07
-4.60613e-06
-1.69261e-06
-7.11604e-06
-3.07245e-06
-9.94564e-06
-4.23085e-06
-1.30293e-05
-4.69566e-06
-1.60139e-05
-3.96719e-06
-1.79598e-05
-1.94493e-06
-1.68567e-05
-9.10966e-06
-2.23069e-06
1.01515e-05
-3.5903e-06
1.63237e-05
-3.07779e-06
1.59067e-05
-1.3439e-06
1.34874e-05
8.97e-07
1.0748e-05
3.15492e-06
8.23825e-06
5.13806e-06
6.08738e-06
6.68863e-06
4.25977e-06
7.72576e-06
2.66836e-06
8.20648e-06
1.21681e-06
8.10382e-06
-1.91718e-07
7.39897e-06
-1.65801e-06
6.0868e-06
-3.29396e-06
4.19914e-06
-5.22838e-06
1.85411e-06
-7.60062e-06
-6.61743e-07
-1.05134e-05
-2.79219e-06
-1.38834e-05
-3.6621e-06
-1.70899e-05
-2.41154e-06
-1.81073e-05
-1.15212e-05
-2.57382e-06
1.27253e-05
-2.18346e-06
1.59333e-05
7.18058e-07
1.30052e-05
4.46955e-06
9.73587e-06
8.13326e-06
7.0843e-06
1.13015e-05
5.06997e-06
1.3829e-05
3.55987e-06
1.5688e-05
2.40078e-06
1.68916e-05
1.46479e-06
1.74548e-05
6.536e-07
1.73763e-05
-1.132e-07
1.66304e-05
-9.12149e-07
1.51671e-05
-1.83065e-06
1.29235e-05
-2.98472e-06
9.86171e-06
-4.53887e-06
6.06194e-06
-6.71362e-06
1.91232e-06
-9.73378e-06
-1.55963e-06
-1.36179e-05
-2.45834e-06
-1.72086e-05
-1.39795e-05
-7.85013e-07
1.35103e-05
4.08079e-06
1.10675e-05
1.02975e-05
6.78842e-06
1.57936e-05
4.23979e-06
2.0158e-05
2.71991e-06
2.3458e-05
1.76994e-06
2.58608e-05
1.15713e-06
2.75215e-05
7.4005e-07
2.8554e-05
4.32291e-07
2.90264e-05
1.81221e-07
2.89622e-05
-4.89811e-08
2.83387e-05
-2.88698e-07
2.70818e-05
-5.73738e-07
2.5055e-05
-9.57953e-07
2.20517e-05
-1.53552e-06
1.78155e-05
-2.47741e-06
1.21724e-05
-4.09068e-06
5.47772e-06
-6.92324e-06
-1.29171e-07
-1.16017e-05
-1.41087e-05
1.35103e-05
2.45779e-05
3.13663e-05
3.56061e-05
3.8326e-05
4.00959e-05
4.1253e-05
4.19931e-05
4.24254e-05
4.26066e-05
4.25576e-05
4.22689e-05
4.16952e-05
4.07372e-05
3.92017e-05
3.67243e-05
3.26336e-05
2.57104e-05
1.41087e-05
)
;

boundaryField
{
    movingWall
    {
        type            calculated;
        value           uniform 0;
    }
    fixedWalls
    {
        type            calculated;
        value           uniform 0;
    }
    frontAndBack
    {
        type            empty;
        value           nonuniform List<scalar> 0();
    }
}


// ************************************************************************* //
