/*--------------------------------*- C++ -*----------------------------------*\
  =========                 |
  \\      /  F ield         | OpenFOAM: The Open Source CFD Toolbox
   \\    /   O peration     | Website:  https://openfoam.org
    \\  /    A nd           | Version:  8
     \\/     M anipulation  |
\*---------------------------------------------------------------------------*/
FoamFile
{
    version     2.0;
    format      ascii;
    class       volVectorField;
    location    "0.34";
    object      U;
}
// * * * * * * * * * * * * * * * * * * * * * * * * * * * * * * * * * * * * * //

dimensions      [0 1 -1 0 0 0 0];

internalField   nonuniform List<vector> 
400
(
(0.000253386 -0.000250421 0)
(0.000141189 0.000111427 0)
(-0.00117696 0.000564583 0)
(-0.003481 0.000884946 0)
(-0.00637727 0.00104566 0)
(-0.00946916 0.0010617 0)
(-0.0124025 0.000957808 0)
(-0.0148845 0.000760409 0)
(-0.016689 0.000494627 0)
(-0.0176578 0.000184555 0)
(-0.0177017 -0.000145264 0)
(-0.0168046 -0.00046835 0)
(-0.0150297 -0.000755386 0)
(-0.0125248 -0.000974229 0)
(-0.00952616 -0.00109115 0)
(-0.00635483 -0.00107398 0)
(-0.00340056 -0.000898102 0)
(-0.00108642 -0.000556381 0)
(0.000196409 -9.03697e-05 0)
(0.000267849 0.000262375 0)
(-7.74669e-05 -0.000169356 0)
(-0.00161153 0.00164479 0)
(-0.00569278 0.00361721 0)
(-0.0117186 0.00503469 0)
(-0.0188919 0.00574308 0)
(-0.0264003 0.00576006 0)
(-0.0334686 0.00517155 0)
(-0.0394261 0.00409242 0)
(-0.0437432 0.00264759 0)
(-0.0460464 0.000966914 0)
(-0.0461287 -0.0008132 0)
(-0.0439607 -0.00254702 0)
(-0.0397006 -0.00407855 0)
(-0.0337022 -0.005245 0)
(-0.026513 -0.00588645 0)
(-0.0188543 -0.00586476 0)
(-0.0115665 -0.00509468 0)
(-0.00551322 -0.00358938 0)
(-0.00149307 -0.00155912 0)
(-4.25815e-05 0.000227445 0)
(-0.000528598 0.0010916 0)
(-0.00371134 0.00573618 0)
(-0.0105888 0.0102243 0)
(-0.0199915 0.0134074 0)
(-0.0307645 0.014946 0)
(-0.0418217 0.0148385 0)
(-0.0521193 0.0132554 0)
(-0.0607436 0.010456 0)
(-0.0669688 0.00674188 0)
(-0.0702821 0.00243884 0)
(-0.0704 -0.00210649 0)
(-0.0672838 -0.00652534 0)
(-0.0611519 -0.010429 0)
(-0.0524881 -0.0134208 0)
(-0.0420367 -0.0151232 0)
(-0.0307737 -0.0152254 0)
(-0.0198289 -0.0135558 0)
(-0.0103635 -0.0101788 0)
(-0.00354848 -0.00555101 0)
(-0.000476839 -0.000948829 0)
(-0.00092821 0.00347978 0)
(-0.00569143 0.0122204 0)
(-0.0153017 0.0199213 0)
(-0.0279166 0.0251974 0)
(-0.0419851 0.0275965 0)
(-0.0561787 0.027137 0)
(-0.0692516 0.0241085 0)
(-0.0801252 0.0189535 0)
(-0.0879477 0.0121954 0)
(-0.0921183 0.00440502 0)
(-0.0923029 -0.00380788 0)
(-0.0884497 -0.0117963 0)
(-0.0808046 -0.0188818 0)
(-0.0699226 -0.0243759 0)
(-0.0566689 -0.0276272 0)
(-0.0421946 -0.0281013 0)
(-0.0278565 -0.0254973 0)
(-0.0150936 -0.0198914 0)
(-0.005505 -0.0119275 0)
(-0.000861591 -0.00322483 0)
(-0.00127892 0.00687768 0)
(-0.00753599 0.0209533 0)
(-0.0198047 0.0325098 0)
(-0.0355347 0.0401025 0)
(-0.0527432 0.0432895 0)
(-0.0698583 0.042192 0)
(-0.0854631 0.0372769 0)
(-0.0983603 0.0292125 0)
(-0.10762 0.0187769 0)
(-0.112588 0.00681363 0)
(-0.112897 -0.00578025 0)
(-0.108474 -0.0180544 0)
(-0.099562 -0.0290108 0)
(-0.086739 -0.0376321 0)
(-0.0709355 -0.0429442 0)
(-0.0534301 -0.0441281 0)
(-0.0357845 -0.040678 0)
(-0.0197351 -0.032592 0)
(-0.00737055 -0.0205903 0)
(-0.00120366 -0.00649806 0)
(-0.00160751 0.0112154 0)
(-0.00931796 0.031874 0)
(-0.0242091 0.0479509 0)
(-0.0430024 0.0580708 0)
(-0.0632567 0.0619358 0)
(-0.0831525 0.0598798 0)
(-0.101124 0.0526271 0)
(-0.115892 0.0411249 0)
(-0.126487 0.0264365 0)
(-0.132237 0.0096927 0)
(-0.132749 -0.00791609 0)
(-0.127922 -0.0251315 0)
(-0.117965 -0.040624 0)
(-0.103433 -0.0530181 0)
(-0.0852683 -0.0609648 0)
(-0.0648351 -0.0632787 0)
(-0.0438851 -0.0591407 0)
(-0.0244775 -0.0483433 0)
(-0.00925423 -0.0315569 0)
(-0.00153774 -0.0107283 0)
(-0.00194003 0.0164767 0)
(-0.0111211 0.0449732 0)
(-0.0286501 0.0662317 0)
(-0.0504793 0.0790574 0)
(-0.0736841 0.0834441 0)
(-0.0962027 0.080072 0)
(-0.11635 0.0700225 0)
(-0.132813 0.0545834 0)
(-0.144629 0.0351308 0)
(-0.15114 0.0130844 0)
(-0.151947 -0.0100862 0)
(-0.146914 -0.0328316 0)
(-0.13618 -0.0534982 0)
(-0.120222 -0.0703349 0)
(-0.0999314 -0.0815631 0)
(-0.0767005 -0.0855305 0)
(-0.0524395 -0.0809617 0)
(-0.0295445 -0.0672754 0)
(-0.0112835 -0.0449385 0)
(-0.00190006 -0.0159512 0)
(-0.00230001 0.0226944 0)
(-0.0130249 0.0602993 0)
(-0.0332504 0.0873613 0)
(-0.0580789 0.102994 0)
(-0.0840735 0.107662 0)
(-0.108952 0.102558 0)
(-0.130966 0.0892415 0)
(-0.148832 0.0694088 0)
(-0.161664 0.0447704 0)
(-0.168865 0.0170194 0)
(-0.170061 -0.0121331 0)
(-0.165069 -0.0408919 0)
(-0.153928 -0.0673123 0)
(-0.136968 -0.0892706 0)
(-0.114941 -0.104509 0)
(-0.0891747 -0.110794 0)
(-0.0616699 -0.10621 0)
(-0.0351479 -0.0895772 0)
(-0.0135857 -0.0609481 0)
(-0.00232631 -0.0222771 0)
(-0.00271162 0.0299462 0)
(-0.0151078 0.0779544 0)
(-0.0381143 0.111353 0)
(-0.0658476 0.129746 0)
(-0.0943256 0.134313 0)
(-0.121098 0.12697 0)
(-0.144442 0.109899 0)
(-0.163211 0.0852791 0)
(-0.176685 0.0551655 0)
(-0.184404 0.0214864 0)
(-0.186055 -0.0138741 0)
(-0.18142 -0.0489549 0)
(-0.170393 -0.0815908 0)
(-0.153079 -0.10932 0)
(-0.129969 -0.129377 0)
(-0.102185 -0.138825 0)
(-0.0716887 -0.134883 0)
(-0.0414665 -0.115466 0)
(-0.0162879 -0.0798935 0)
(-0.00285467 -0.0298889 0)
(-0.00320765 0.0383586 0)
(-0.0174661 0.0980868 0)
(-0.0433408 0.138185 0)
(-0.0737562 0.159041 0)
(-0.104159 0.162896 0)
(-0.132031 0.152668 0)
(-0.155825 0.131337 0)
(-0.174678 0.101637 0)
(-0.188167 0.0659558 0)
(-0.196067 0.026389 0)
(-0.198185 -0.0151119 0)
(-0.194282 -0.0565434 0)
(-0.18408 -0.095639 0)
(-0.167366 -0.129685 0)
(-0.144215 -0.155419 0)
(-0.115338 -0.169093 0)
(-0.0824453 -0.166798 0)
(-0.0486358 -0.145121 0)
(-0.0195286 -0.102158 0)
(-0.00353354 -0.0390464 0)
(-0.00384397 0.0481275 0)
(-0.0202462 0.120891 0)
(-0.0490467 0.167748 0)
(-0.0816866 0.190361 0)
(-0.113053 0.192552 0)
(-0.140747 0.17861 0)
(-0.163622 0.152508 0)
(-0.18131 0.11759 0)
(-0.193847 0.0765331 0)
(-0.201361 0.0314938 0)
(-0.203857 -0.015658 0)
(-0.20111 -0.0630484 0)
(-0.192649 -0.108488 0)
(-0.177857 -0.149167 0)
(-0.156224 -0.181411 0)
(-0.12778 -0.200602 0)
(-0.0936442 -0.20142 0)
(-0.056733 -0.17857 0)
(-0.0234798 -0.12817 0)
(-0.00443553 -0.0501035 0)
(-0.0047254 0.0595701 0)
(-0.0236949 0.146615 0)
(-0.0553834 0.199752 0)
(-0.0893772 0.222786 0)
(-0.120123 0.221887 0)
(-0.145677 0.203183 0)
(-0.165632 0.171836 0)
(-0.180373 0.131808 0)
(-0.190583 0.0859682 0)
(-0.196865 0.036376 0)
(-0.199504 -0.0153698 0)
(-0.198338 -0.067741 0)
(-0.192719 -0.118864 0)
(-0.181576 -0.166074 0)
(-0.163646 -0.205484 0)
(-0.137967 -0.231656 0)
(-0.104596 -0.237621 0)
(-0.0657338 -0.215521 0)
(-0.0283778 -0.158365 0)
(-0.00568209 -0.0635512 0)
(-0.00605163 0.0732273 0)
(-0.0282261 0.175561 0)
(-0.0625094 0.233567 0)
(-0.0962582 0.254742 0)
(-0.123858 0.248727 0)
(-0.1444 0.224022 0)
(-0.158673 0.187104 0)
(-0.16811 0.142459 0)
(-0.174204 0.0929673 0)
(-0.178122 0.0403787 0)
(-0.180488 -0.0141977 0)
(-0.181269 -0.0698193 0)
(-0.179698 -0.125208 0)
(-0.174273 -0.178176 0)
(-0.162897 -0.224969 0)
(-0.143318 -0.259584 0)
(-0.113938 -0.273325 0)
(-0.0753936 -0.255063 0)
(-0.0345564 -0.193088 0)
(-0.00748631 -0.0801033 0)
(-0.00819212 0.0900455 0)
(-0.034483 0.208018 0)
(-0.070413 0.26788 0)
(-0.101025 0.283603 0)
(-0.121576 0.269807 0)
(-0.13311 0.237837 0)
(-0.138166 0.195401 0)
(-0.139466 0.147231 0)
(-0.139371 0.0959078 0)
(-0.139599 0.0426192 0)
(-0.141113 -0.0122323 0)
(-0.144058 -0.0685055 0)
(-0.147672 -0.125792 0)
(-0.150172 -0.182766 0)
(-0.148723 -0.236321 0)
(-0.139645 -0.280443 0)
(-0.119096 -0.305022 0)
(-0.0849366 -0.295156 0)
(-0.0424407 -0.232375 0)
(-0.0102161 -0.100836 0)
(-0.0117675 0.111635 0)
(-0.04326 0.24396 0)
(-0.078298 0.300032 0)
(-0.100629 0.30509 0)
(-0.108353 0.280457 0)
(-0.105733 0.24038 0)
(-0.0975317 0.193278 0)
(-0.0877734 0.143547 0)
(-0.0795037 0.0930346 0)
(-0.0747882 0.0420946 0)
(-0.0748058 -0.00972834 0)
(-0.0798935 -0.0632099 0)
(-0.0894654 -0.118988 0)
(-0.101791 -0.176955 0)
(-0.113688 -0.235282 0)
(-0.120306 -0.288879 0)
(-0.115264 -0.327193 0)
(-0.092267 -0.331792 0)
(-0.0523159 -0.275402 0)
(-0.0144304 -0.127346 0)
(-0.0175494 0.140659 0)
(-0.0547648 0.282144 0)
(-0.0827868 0.324717 0)
(-0.0880813 0.312471 0)
(-0.0751098 0.274454 0)
(-0.0525927 0.226768 0)
(-0.0274605 0.177286 0)
(-0.00451692 0.129134 0)
(0.0130962 0.0829118 0)
(0.0234373 0.0379465 0)
(0.0253959 -0.00707322 0)
(0.0185049 -0.0537577 0)
(0.00297752 -0.10375 0)
(-0.0199989 -0.158318 0)
(-0.0476874 -0.2175 0)
(-0.0749859 -0.278359 0)
(-0.0935475 -0.331789 0)
(-0.0920642 -0.357681 0)
(-0.0632807 -0.319293 0)
(-0.0206336 -0.161973 0)
(-0.0254498 0.181711 0)
(-0.0657747 0.317771 0)
(-0.0733334 0.331361 0)
(-0.0480777 0.295399 0)
(-0.00557932 0.24421 0)
(0.0412171 0.192379 0)
(0.0846513 0.145046 0)
(0.120534 0.102971 0)
(0.1467 0.0651372 0)
(0.162045 0.0298911 0)
(0.165939 -0.00467142 0)
(0.157933 -0.0406279 0)
(0.13773 -0.0802457 0)
(0.105438 -0.125917 0)
(0.0622605 -0.179725 0)
(0.0118045 -0.242019 0)
(-0.0378308 -0.307876 0)
(-0.0716799 -0.360142 0)
(-0.0700557 -0.356607 0)
(-0.0279123 -0.208375 0)
(-0.029649 0.239176 0)
(-0.0608414 0.335767 0)
(-0.0219427 0.300502 0)
(0.0505413 0.240127 0)
(0.127571 0.182948 0)
(0.197006 0.135388 0)
(0.254335 0.0973983 0)
(0.298249 0.0668505 0)
(0.328822 0.041355 0)
(0.346465 0.0187784 0)
(0.351374 -0.00279409 0)
(0.3433 -0.0252649 0)
(0.321467 -0.0507873 0)
(0.284641 -0.0820475 0)
(0.23157 -0.122445 0)
(0.16218 -0.175668 0)
(0.0798998 -0.243431 0)
(-0.00319035 -0.319135 0)
(-0.0546697 -0.368612 0)
(-0.0284594 -0.267618 0)
(0.00808311 0.281861 0)
(0.019783 0.294972 0)
(0.139066 0.210972 0)
(0.26446 0.143477 0)
(0.364367 0.0971857 0)
(0.440363 0.0657771 0)
(0.496741 0.0442372 0)
(0.536872 0.0288858 0)
(0.563445 0.0171987 0)
(0.578304 0.00748473 0)
(0.582378 -0.00149409 0)
(0.575693 -0.0108451 0)
(0.557307 -0.0218469 0)
(0.525133 -0.0363347 0)
(0.475776 -0.0572593 0)
(0.404536 -0.0893838 0)
(0.305176 -0.139741 0)
(0.173416 -0.216386 0)
(0.0411719 -0.311655 0)
(0.0184302 -0.299995 0)
(0.299604 0.146091 0)
(0.396272 0.127503 0)
(0.55742 0.0760895 0)
(0.674487 0.0437232 0)
(0.743888 0.025572 0)
(0.787153 0.0152421 0)
(0.815485 0.00921227 0)
(0.833954 0.00550937 0)
(0.845384 0.00302715 0)
(0.85137 0.00114934 0)
(0.852665 -0.000499372 0)
(0.849381 -0.00221504 0)
(0.840999 -0.00433852 0)
(0.82614 -0.00742403 0)
(0.802078 -0.0125322 0)
(0.76362 -0.0217728 0)
(0.699108 -0.0392829 0)
(0.583952 -0.0726601 0)
(0.415827 -0.127868 0)
(0.308819 -0.149468 0)
)
;

boundaryField
{
    movingWall
    {
        type            fixedValue;
        value           uniform (1 0 0);
    }
    fixedWalls
    {
        type            noSlip;
    }
    frontAndBack
    {
        type            empty;
    }
}


// ************************************************************************* //
