/*--------------------------------*- C++ -*----------------------------------*\
  =========                 |
  \\      /  F ield         | OpenFOAM: The Open Source CFD Toolbox
   \\    /   O peration     | Website:  https://openfoam.org
    \\  /    A nd           | Version:  8
     \\/     M anipulation  |
\*---------------------------------------------------------------------------*/
FoamFile
{
    version     2.0;
    format      ascii;
    class       volVectorField;
    location    "43.5";
    object      U;
}
// * * * * * * * * * * * * * * * * * * * * * * * * * * * * * * * * * * * * * //

dimensions      [0 1 -1 0 0 0 0];

internalField   nonuniform List<vector> 
116
(
(0.0180519 -0.0107517 0)
(0.015903 -0.0114434 0)
(0.0470892 -0.0197224 0)
(0.00995165 -0.0180587 0)
(0.00631435 0.0625417 0)
(-0.15799 0.0862821 0)
(0.00910983 -0.02508 0)
(-0.00513401 -0.0149276 0)
(-0.0165337 0.0210841 0)
(-0.0945718 0.0632272 0)
(-0.110948 0.0898085 0)
(-0.16628 0.0619423 0)
(-0.00246562 -0.013546 0)
(-0.03004 0.0163201 0)
(-0.0552504 0.061234 0)
(-0.100633 0.0924091 0)
(-0.109306 0.119084 0)
(-0.120043 0.073508 0)
(-0.00961776 0.00575695 0)
(-0.0337459 0.0426527 0)
(-0.0542659 0.0900657 0)
(-0.0822979 0.115132 0)
(-0.0800418 0.113516 0)
(-0.0631623 0.0440003 0)
(-0.00510249 0.0301719 0)
(-0.0253465 0.0604415 0)
(-0.0408909 0.103327 0)
(-0.047565 0.114764 0)
(-0.0405264 0.0991351 0)
(-0.0198469 0.0282775 0)
(-0.00335394 0.0346175 0)
(-0.0104667 0.0780268 0)
(-0.00899053 0.10973 0)
(-0.00492813 0.117623 0)
(-0.00174941 0.0967003 0)
(0.00974277 0.0360059 0)
(0.00148769 0.0482907 0)
(0.00119078 0.068334 0)
(0.00228895 0.0999008 0)
(0.0201427 0.102431 0)
(0.0303734 0.0801122 0)
(0.0505911 0.0342934 0)
(0.0085623 0.0274786 0)
(0.0128432 0.0776846 0)
(0.0349217 0.0892362 0)
(0.0602857 0.0932733 0)
(0.071573 0.0740773 0)
(0.0915699 0.0461734 0)
(-0.055921 0.0341007 0)
(-0.0195244 0.0367981 0)
(-0.0115907 0.0531904 0)
(0.0332289 0.0590821 0)
(0.0546704 0.0436653 0)
(0.0850511 0.0319319 0)
(0.0535284 0.0909411 0)
(0.0848306 0.044193 0)
(0.118038 0.034594 0)
(0.178795 0.0308433 0)
(0.197662 0.0257888 0)
(0.249448 0.0225921 0)
(-0.111414 0.114495 0)
(-0.112243 -0.0294786 0)
(-0.0297274 0.00140929 0)
(-0.00554874 -0.137767 0)
(-0.107674 0.0784393 0)
(-0.111402 -0.0668737 0)
(-0.0827158 -0.0723451 0)
(0.00464076 -0.173935 0)
(-0.0787588 0.0549792 0)
(-0.0560408 -0.0619519 0)
(-0.073974 -0.114128 0)
(0.000812829 -0.218082 0)
(-0.0451448 0.0270286 0)
(-0.0129525 -0.0654736 0)
(-0.0475967 -0.122498 0)
(0.00848978 -0.241634 0)
(-0.0306124 0.00435124 0)
(0.00745423 -0.0671678 0)
(-0.0396022 -0.13421 0)
(0.012428 -0.263697 0)
(-0.0132892 0.00306351 0)
(0.0330593 -0.0549135 0)
(-0.0261645 -0.119322 0)
(0.0203902 -0.27039 0)
(0.0256937 -0.019178 0)
(0.0534937 -0.0627341 0)
(-0.0229806 -0.129926 0)
(0.0280183 -0.274942 0)
(0.069983 0.00768501 0)
(0.0713139 -0.00501964 0)
(0.00746441 -0.0751285 0)
(0.0514248 -0.249941 0)
(0.0808593 0.00105854 0)
(0.08981 -0.0144128 0)
(0.0662166 -0.118842 0)
(0.0802055 -0.251778 0)
(0.244708 0.0140991 0)
(0.271985 0.00255715 0)
(0.2147 -0.0238604 0)
(0.153423 -0.0687446 0)
(-0.0205669 0.00285572 0)
(-0.0532094 0.00396187 0)
(-0.0698522 0.0014876 0)
(-0.0436754 -0.0344603 0)
(-0.0194986 0.0691687 0)
(-0.0444655 0.0449083 0)
(-0.0450128 -0.00411016 0)
(-0.0418738 -0.0863001 0)
(-0.0360146 0.0668549 0)
(-0.00518876 0.0190052 0)
(-0.0181289 0.0063023 0)
(-0.0298152 -0.12815 0)
(-0.00926377 0.118503 0)
(-0.0428032 0.0310898 0)
(0.0261174 0.0257171 0)
(-0.0324397 -0.123545 0)
)
;

boundaryField
{
    movingWall
    {
        type            fixedValue;
        value           uniform (1 0 0);
    }
    fixedWalls
    {
        type            noSlip;
    }
    frontAndBack
    {
        type            empty;
    }
}


// ************************************************************************* //
