/*--------------------------------*- C++ -*----------------------------------*\
  =========                 |
  \\      /  F ield         | OpenFOAM: The Open Source CFD Toolbox
   \\    /   O peration     | Website:  https://openfoam.org
    \\  /    A nd           | Version:  8
     \\/     M anipulation  |
\*---------------------------------------------------------------------------*/
FoamFile
{
    version     2.0;
    format      ascii;
    class       volScalarField;
    location    "1.57";
    object      p;
}
// * * * * * * * * * * * * * * * * * * * * * * * * * * * * * * * * * * * * * //

dimensions      [0 2 -2 0 0 0 0];

internalField   nonuniform List<scalar> 
400
(
-4.10094e-15
-6.40876e-15
-6.96934e-15
-6.71714e-15
-6.05429e-15
-5.24355e-15
-4.33628e-15
-3.49809e-15
-2.71511e-15
-2.15057e-15
-1.79846e-15
-1.80281e-15
-2.03746e-15
-2.59906e-15
-3.47501e-15
-4.48052e-15
-5.53261e-15
-6.39476e-15
-6.86155e-15
-6.40832e-15
-5.67274e-15
-6.14835e-15
-6.4194e-15
-6.35588e-15
-6.02889e-15
-5.38777e-15
-4.8266e-15
-4.08885e-15
-3.52347e-15
-2.88417e-15
-2.57428e-15
-2.47546e-15
-2.60007e-15
-2.97733e-15
-3.52283e-15
-4.34471e-15
-5.10491e-15
-5.806e-15
-6.10713e-15
-6.15747e-15
-5.99051e-15
-6.14838e-15
-6.34679e-15
-6.44796e-15
-6.15988e-15
-5.75147e-15
-5.25447e-15
-4.75965e-15
-4.05134e-15
-3.51896e-15
-2.99672e-15
-2.71012e-15
-2.76563e-15
-3.02865e-15
-3.424e-15
-3.86578e-15
-4.72484e-15
-5.20702e-15
-5.75171e-15
-5.88959e-15
-6.25133e-15
-6.46504e-15
-6.59182e-15
-6.66041e-15
-6.58505e-15
-6.05694e-15
-5.76039e-15
-4.96635e-15
-4.39182e-15
-3.66953e-15
-3.41396e-15
-2.83692e-15
-2.66933e-15
-2.76095e-15
-3.06431e-15
-3.61645e-15
-4.23219e-15
-4.8778e-15
-5.37069e-15
-6.09067e-15
-6.74709e-15
-6.85688e-15
-7.06006e-15
-7.11862e-15
-6.71275e-15
-6.41367e-15
-5.81187e-15
-5.39452e-15
-4.43831e-15
-3.95007e-15
-3.20837e-15
-2.86642e-15
-2.62017e-15
-2.55073e-15
-2.84507e-15
-3.23208e-15
-4.07218e-15
-4.75623e-15
-5.6632e-15
-6.27508e-15
-7.02909e-15
-7.37017e-15
-7.34696e-15
-7.42962e-15
-7.03018e-15
-6.57528e-15
-6.02969e-15
-5.12329e-15
-4.71752e-15
-3.8091e-15
-3.27393e-15
-2.71669e-15
-2.53195e-15
-2.44769e-15
-2.58658e-15
-3.4706e-15
-4.30292e-15
-5.17697e-15
-5.7737e-15
-6.88737e-15
-7.68772e-15
-7.5411e-15
-7.73198e-15
-7.56534e-15
-7.1843e-15
-6.76877e-15
-6.01125e-15
-5.05794e-15
-4.61015e-15
-3.89441e-15
-2.98628e-15
-2.56943e-15
-2.12094e-15
-2.5053e-15
-2.97476e-15
-3.72843e-15
-4.80531e-15
-5.51996e-15
-6.60943e-15
-7.31962e-15
-7.70911e-15
-8.07557e-15
-8.05992e-15
-7.49745e-15
-7.14186e-15
-6.53883e-15
-5.80727e-15
-4.73017e-15
-4.63275e-15
-3.61217e-15
-2.99615e-15
-2.40459e-15
-2.25345e-15
-3.04314e-15
-3.56341e-15
-4.5855e-15
-5.38506e-15
-6.40825e-15
-7.08339e-15
-7.51796e-15
-8.13117e-15
-8.11376e-15
-8.25081e-15
-7.46489e-15
-6.81787e-15
-6.4356e-15
-5.52321e-15
-4.90155e-15
-4.3836e-15
-3.42236e-15
-2.92894e-15
-2.98661e-15
-2.78654e-15
-3.85351e-15
-4.36934e-15
-5.14898e-15
-6.046e-15
-6.90287e-15
-7.6149e-15
-7.95974e-15
-8.74207e-15
-8.43e-15
-8.2596e-15
-7.50918e-15
-6.75297e-15
-6.23606e-15
-5.38042e-15
-4.63417e-15
-4.40734e-15
-3.60269e-15
-3.38094e-15
-3.29702e-15
-3.59469e-15
-4.41387e-15
-5.43679e-15
-5.82991e-15
-6.30093e-15
-7.49218e-15
-7.90734e-15
-8.5749e-15
-9.25621e-15
-8.58546e-15
-8.37494e-15
-7.41231e-15
-6.33136e-15
-6.04e-15
-5.24494e-15
-5.08699e-15
-4.79577e-15
-4.30217e-15
-3.77089e-15
-3.79867e-15
-3.79867e-15
-5.19876e-15
-6.20586e-15
-6.50162e-15
-6.89163e-15
-7.70404e-15
-8.52111e-15
-9.11449e-15
-8.85486e-15
-8.88021e-15
-8.29151e-15
-7.49193e-15
-6.42503e-15
-6.06967e-15
-5.38494e-15
-5.35017e-15
-5.14372e-15
-4.74998e-15
-4.74089e-15
-4.34266e-15
-4.6464e-15
-5.43788e-15
-6.41692e-15
-7.15986e-15
-7.62061e-15
-8.19973e-15
-8.78599e-15
-9.52977e-15
-8.90523e-15
-8.97916e-15
-8.73918e-15
-7.34105e-15
-6.36944e-15
-6.15415e-15
-6.06236e-15
-6.00261e-15
-5.3167e-15
-5.45626e-15
-5.44217e-15
-4.95888e-15
-5.62941e-15
-5.97679e-15
-6.699e-15
-7.34104e-15
-7.9239e-15
-8.39224e-15
-9.02748e-15
-9.05979e-15
-8.72711e-15
-8.7734e-15
-8.40234e-15
-7.71509e-15
-6.69104e-15
-6.87564e-15
-6.56899e-15
-6.43898e-15
-5.69566e-15
-6.02576e-15
-6.30071e-15
-5.98896e-15
-6.75262e-15
-6.55663e-15
-7.11175e-15
-7.73451e-15
-8.2259e-15
-7.71934e-15
-8.38797e-15
-8.77669e-15
-8.45314e-15
-8.72655e-15
-8.39754e-15
-7.5597e-15
-7.48037e-15
-7.69413e-15
-6.99403e-15
-6.71634e-15
-6.4714e-15
-6.56369e-15
-7.18083e-15
-7.13623e-15
-7.30476e-15
-6.90534e-15
-7.74252e-15
-8.1921e-15
-8.11415e-15
-7.82022e-15
-7.74496e-15
-7.77993e-15
-7.42701e-15
-9.31948e-15
-8.67277e-15
-7.46678e-15
-7.91121e-15
-7.8014e-15
-7.64937e-15
-7.66602e-15
-7.68833e-15
-7.53973e-15
-7.72939e-15
-7.611e-15
-7.59209e-15
-7.44471e-15
-7.87237e-15
-8.21779e-15
-7.86124e-15
-7.61258e-15
-8.08613e-15
-7.29689e-15
-8.09443e-15
-9.17542e-15
-8.86723e-15
-8.14796e-15
-7.9399e-15
-7.76492e-15
-7.7525e-15
-8.25911e-15
-8.69561e-15
-8.21829e-15
-8.12874e-15
-8.1736e-15
-7.91614e-15
-7.61381e-15
-7.75499e-15
-7.86838e-15
-7.50846e-15
-7.23152e-15
-7.8776e-15
-8.19843e-15
-8.72881e-15
-8.82454e-15
-8.58462e-15
-8.56886e-15
-8.73508e-15
-8.15569e-15
-7.97626e-15
-8.32488e-15
-8.89384e-15
-8.27024e-15
-8.59222e-15
-8.40465e-15
-8.04443e-15
-8.16817e-15
-7.97632e-15
-7.58782e-15
-7.61717e-15
-6.89633e-15
-7.64591e-15
-8.37282e-15
-8.47149e-15
-8.81696e-15
-8.4211e-15
-8.45489e-15
-8.62542e-15
-7.90737e-15
-7.59931e-15
-8.18557e-15
-9.15341e-15
-8.49275e-15
-8.44614e-15
-8.75097e-15
-8.76664e-15
-8.44247e-15
-7.90743e-15
-7.59586e-15
-7.40672e-15
-7.50354e-15
-8.54996e-15
-8.91814e-15
-8.58479e-15
-8.14799e-15
-8.38653e-15
-8.58642e-15
-7.51029e-15
-8.03388e-15
-7.27586e-15
-7.57934e-15
-8.62827e-15
-9.0903e-15
-8.79715e-15
-8.8963e-15
-9.15789e-15
-8.43374e-15
-7.69982e-15
-8.15689e-15
-7.81798e-15
-7.93871e-15
-8.5458e-15
-9.14823e-15
)
;

boundaryField
{
    movingWall
    {
        type            zeroGradient;
    }
    fixedWalls
    {
        type            zeroGradient;
    }
    left
    {
        type            cyclic;
    }
    right
    {
        type            cyclic;
    }
    frontAndBack
    {
        type            empty;
    }
}


// ************************************************************************* //
