/*--------------------------------*- C++ -*----------------------------------*\
  =========                 |
  \\      /  F ield         | OpenFOAM: The Open Source CFD Toolbox
   \\    /   O peration     | Website:  https://openfoam.org
    \\  /    A nd           | Version:  8
     \\/     M anipulation  |
\*---------------------------------------------------------------------------*/
FoamFile
{
    version     2.0;
    format      ascii;
    class       volScalarField;
    location    "40";
    object      p;
}
// * * * * * * * * * * * * * * * * * * * * * * * * * * * * * * * * * * * * * //

dimensions      [0 2 -2 0 0 0 0];

internalField   nonuniform List<scalar> 
46400
(
4.78681e-09
-4.0027e-07
-7.23463e-07
-9.67733e-07
-1.12888e-06
-1.20476e-06
-1.19757e-06
-1.11181e-06
-9.51969e-07
-7.21387e-07
-4.22477e-07
-5.72318e-08
3.72652e-07
8.6592e-07
1.4218e-06
2.03979e-06
2.71948e-06
3.46038e-06
4.26206e-06
5.12418e-06
6.04654e-06
7.029e-06
8.07139e-06
9.17342e-06
1.03348e-05
1.15551e-05
1.28341e-05
1.41717e-05
1.55678e-05
1.70221e-05
1.85344e-05
2.01042e-05
2.17312e-05
2.34153e-05
2.51562e-05
2.69535e-05
2.88069e-05
3.07161e-05
3.26807e-05
3.47003e-05
3.67744e-05
3.89027e-05
4.10846e-05
4.33199e-05
4.5608e-05
4.79486e-05
5.0341e-05
5.27846e-05
5.5279e-05
5.78235e-05
6.04176e-05
6.30605e-05
6.57517e-05
6.84905e-05
7.12764e-05
7.41084e-05
7.69859e-05
7.9908e-05
8.28738e-05
8.58825e-05
8.89331e-05
9.20249e-05
9.51569e-05
9.83282e-05
0.000101538
0.000104785
0.000108069
0.000111388
0.000114741
0.000118127
0.000121545
0.000124994
0.000128472
0.000131978
0.000135511
0.000139069
0.00014265
0.000146255
0.00014988
0.000153525
0.000157188
0.000160868
0.000164561
0.000168268
0.000171986
0.000175713
0.000179448
0.000183188
0.000186931
0.000190676
0.00019442
0.000198161
0.000201896
0.000205624
0.000209341
0.000213045
0.000216733
0.000220403
0.000224049
0.00022767
0.00023126
0.000234815
0.00023833
0.0002418
0.000245216
0.000248571
0.000251854
0.000255052
0.000258147
0.000261117
0.000263928
0.000266534
0.00026887
0.000270837
0.00027229
0.000273019
0.000272802
0.000271479
0.000268907
0.000267465
-1.38145e-07
-3.85257e-07
-6.04579e-07
-7.77743e-07
-8.90821e-07
-9.35323e-07
-9.08583e-07
-8.10858e-07
-6.43827e-07
-4.09334e-07
-1.08707e-07
2.57113e-07
6.87218e-07
1.18066e-06
1.73659e-06
2.35443e-06
3.0338e-06
3.77437e-06
4.5758e-06
5.43774e-06
6.35985e-06
7.34188e-06
8.38368e-06
9.48511e-06
1.0646e-05
1.18659e-05
1.31445e-05
1.44816e-05
1.5877e-05
1.73305e-05
1.88419e-05
2.0411e-05
2.20374e-05
2.37208e-05
2.54609e-05
2.72573e-05
2.91099e-05
3.10181e-05
3.29817e-05
3.50002e-05
3.70733e-05
3.92005e-05
4.13813e-05
4.36153e-05
4.59022e-05
4.82415e-05
5.06326e-05
5.30749e-05
5.55679e-05
5.81109e-05
6.07035e-05
6.33449e-05
6.60346e-05
6.87718e-05
7.1556e-05
7.43863e-05
7.7262e-05
8.01823e-05
8.31462e-05
8.61529e-05
8.92015e-05
9.22913e-05
9.54212e-05
9.85904e-05
0.000101798
0.000105043
0.000108324
0.000111641
0.000114992
0.000118376
0.000121791
0.000125237
0.000128713
0.000132216
0.000135746
0.000139301
0.000142881
0.000146482
0.000150105
0.000153747
0.000157407
0.000161084
0.000164775
0.000168479
0.000172194
0.000175918
0.00017965
0.000183387
0.000187128
0.000190871
0.000194612
0.00019835
0.000202084
0.000205809
0.000209525
0.000213227
0.000216914
0.000220582
0.000224229
0.000227849
0.000231439
0.000234995
0.000238512
0.000241984
0.000245404
0.000248764
0.000252054
0.00025526
0.000258369
0.000261359
0.000264205
0.000266875
0.000269329
0.000271517
0.000273393
0.000274946
0.000276263
0.000277589
0.000279467
0.000284764
-1.77169e-07
-4.0863e-07
-5.82247e-07
-7.17523e-07
-8.02492e-07
-8.26591e-07
-7.85841e-07
-6.78751e-07
-5.05234e-07
-2.66102e-07
3.77032e-08
4.055e-07
8.36787e-07
1.33103e-06
1.88764e-06
2.50601e-06
3.1857e-06
3.92638e-06
4.72784e-06
5.58984e-06
6.51211e-06
7.49435e-06
8.53624e-06
9.63758e-06
1.07982e-05
1.20179e-05
1.32964e-05
1.46335e-05
1.60288e-05
1.74822e-05
1.89934e-05
2.05623e-05
2.21885e-05
2.38717e-05
2.56117e-05
2.7408e-05
2.92604e-05
3.11685e-05
3.31318e-05
3.515e-05
3.72228e-05
3.93496e-05
4.15302e-05
4.3764e-05
4.60505e-05
4.83894e-05
5.07802e-05
5.32222e-05
5.57149e-05
5.82577e-05
6.08499e-05
6.3491e-05
6.61804e-05
6.89174e-05
7.17013e-05
7.45312e-05
7.74066e-05
8.03264e-05
8.32899e-05
8.62962e-05
8.93445e-05
9.24339e-05
9.55635e-05
9.87324e-05
0.00010194
0.000105184
0.000108465
0.000111781
0.000115132
0.000118515
0.000121931
0.000125377
0.000128852
0.000132355
0.000135885
0.00013944
0.000143018
0.00014662
0.000150243
0.000153885
0.000157545
0.000161221
0.000164912
0.000168616
0.000172332
0.000176056
0.000179788
0.000183526
0.000187268
0.000191011
0.000194753
0.000198493
0.000202227
0.000205954
0.000209672
0.000213377
0.000217067
0.000220739
0.000224389
0.000228014
0.000231611
0.000235174
0.000238699
0.000242182
0.000245615
0.000248991
0.000252301
0.000255535
0.000258679
0.000261719
0.000264634
0.000267403
0.000270005
0.000272421
0.000274651
0.000276744
0.000278856
0.000281302
0.000284771
0.00029124
-1.87175e-07
-4.41358e-07
-5.98703e-07
-7.13194e-07
-7.79343e-07
-7.87416e-07
-7.34087e-07
-6.17831e-07
-4.37756e-07
-1.93756e-07
1.13767e-07
4.84326e-07
9.17543e-07
1.41311e-06
1.9707e-06
2.5899e-06
3.27032e-06
4.01159e-06
4.81346e-06
5.67575e-06
6.59826e-06
7.5808e-06
8.62306e-06
9.72473e-06
1.08855e-05
1.21053e-05
1.33838e-05
1.4721e-05
1.61165e-05
1.75701e-05
1.90815e-05
2.06506e-05
2.2277e-05
2.39604e-05
2.57006e-05
2.74971e-05
2.93497e-05
3.1258e-05
3.32215e-05
3.52399e-05
3.73128e-05
3.94397e-05
4.16204e-05
4.38544e-05
4.61412e-05
4.84804e-05
5.08713e-05
5.33136e-05
5.58066e-05
5.83498e-05
6.09424e-05
6.3584e-05
6.62738e-05
6.90112e-05
7.17954e-05
7.46258e-05
7.75015e-05
8.04217e-05
8.33857e-05
8.63926e-05
8.94414e-05
9.25315e-05
9.56618e-05
9.88314e-05
0.000102039
0.000105285
0.000108566
0.000111883
0.000115235
0.000118619
0.000122035
0.000125482
0.000128958
0.000132463
0.000135993
0.00013955
0.00014313
0.000146733
0.000150357
0.000154
0.000157662
0.00016134
0.000165033
0.000168739
0.000172456
0.000176183
0.000179918
0.000183658
0.000187402
0.000191148
0.000194894
0.000198637
0.000202375
0.000206107
0.00020983
0.00021354
0.000217236
0.000220915
0.000224572
0.000228207
0.000231814
0.000235389
0.000238929
0.000242429
0.000245882
0.000249284
0.000252626
0.000255901
0.000259099
0.00026221
0.000265221
0.000268124
0.000270913
0.000273593
0.000276194
0.0002788
0.000281575
0.000284803
0.000289015
0.000295263
-2.23575e-07
-5.0417e-07
-6.56914e-07
-7.60201e-07
-8.14285e-07
-8.1069e-07
-7.47026e-07
-6.22399e-07
-4.35938e-07
-1.87109e-07
1.24181e-07
4.97744e-07
9.33316e-07
1.43067e-06
1.98958e-06
2.60984e-06
3.29118e-06
4.03332e-06
4.836e-06
5.69898e-06
6.62205e-06
7.60503e-06
8.64774e-06
9.74988e-06
1.09112e-05
1.21314e-05
1.34103e-05
1.47478e-05
1.61437e-05
1.75977e-05
1.91097e-05
2.06793e-05
2.23062e-05
2.39903e-05
2.5731e-05
2.75281e-05
2.93812e-05
3.129e-05
3.32541e-05
3.52731e-05
3.73465e-05
3.94741e-05
4.16555e-05
4.38901e-05
4.61776e-05
4.85176e-05
5.09093e-05
5.33524e-05
5.58463e-05
5.83905e-05
6.09842e-05
6.36268e-05
6.63177e-05
6.90563e-05
7.18416e-05
7.46731e-05
7.755e-05
8.04715e-05
8.34368e-05
8.64451e-05
8.94955e-05
9.25871e-05
9.57191e-05
9.88904e-05
0.0001021
0.000105347
0.000108631
0.00011195
0.000115303
0.000118689
0.000122108
0.000125557
0.000129035
0.000132542
0.000136075
0.000139634
0.000143217
0.000146823
0.00015045
0.000154097
0.000157761
0.000161443
0.000165139
0.000168849
0.00017257
0.000176301
0.00018004
0.000183785
0.000187533
0.000191284
0.000195035
0.000198785
0.00020253
0.000206268
0.000209998
0.000213717
0.000217422
0.000221111
0.00022478
0.000228427
0.000232048
0.000235641
0.0002392
0.000242723
0.000246204
0.00024964
0.000253023
0.00025635
0.000259614
0.00026281
0.000265934
0.000268987
0.000271975
0.00027492
0.000277871
0.000280918
0.000284211
0.000287972
0.000292542
0.000298393
-3.13692e-07
-6.1606e-07
-7.6909e-07
-8.66588e-07
-9.13182e-07
-9.01648e-07
-8.30295e-07
-6.98768e-07
-5.06534e-07
-2.53092e-07
6.18652e-08
4.38418e-07
8.76477e-07
1.37588e-06
1.93648e-06
2.55811e-06
3.2406e-06
3.98379e-06
4.78749e-06
5.65145e-06
6.57544e-06
7.55922e-06
8.60261e-06
9.7054e-06
1.08674e-05
1.20883e-05
1.33679e-05
1.47061e-05
1.61027e-05
1.75575e-05
1.90703e-05
2.06407e-05
2.22686e-05
2.39535e-05
2.56952e-05
2.74932e-05
2.93473e-05
3.1257e-05
3.32221e-05
3.52421e-05
3.73167e-05
3.94454e-05
4.16279e-05
4.38638e-05
4.61526e-05
4.84939e-05
5.08871e-05
5.33317e-05
5.58271e-05
5.83729e-05
6.09683e-05
6.36128e-05
6.63055e-05
6.90459e-05
7.18331e-05
7.46666e-05
7.75455e-05
8.04691e-05
8.34367e-05
8.64473e-05
8.95003e-05
9.25945e-05
9.57292e-05
9.89033e-05
0.000102116
0.000105366
0.000108653
0.000111975
0.000115331
0.000118721
0.000122142
0.000125595
0.000129077
0.000132588
0.000136125
0.000139688
0.000143276
0.000146886
0.000150517
0.000154168
0.000157838
0.000161525
0.000165226
0.000168942
0.000172668
0.000176405
0.00018015
0.000183902
0.000187658
0.000191416
0.000195175
0.000198932
0.000202686
0.000206434
0.000210174
0.000213904
0.000217621
0.000221323
0.000225007
0.00022867
0.00023231
0.000235923
0.000239507
0.000243057
0.000246572
0.000250047
0.000253479
0.000256865
0.000260203
0.000263491
0.000266732
0.000269933
0.000273111
0.000276294
0.000279534
0.000282915
0.000286555
0.000290612
0.00029528
0.000300748
-4.69622e-07
-7.87322e-07
-9.42415e-07
-1.03706e-06
-1.07879e-06
-1.0617e-06
-9.84719e-07
-8.47798e-07
-6.50661e-07
-3.92991e-07
-7.45111e-08
3.04969e-07
7.45509e-07
1.24707e-06
1.80955e-06
2.43284e-06
3.11679e-06
3.86128e-06
4.66617e-06
5.53128e-06
6.45641e-06
7.44129e-06
8.4857e-06
9.58943e-06
1.07523e-05
1.19742e-05
1.32548e-05
1.4594e-05
1.59917e-05
1.74476e-05
1.89615e-05
2.05332e-05
2.21622e-05
2.38484e-05
2.55913e-05
2.73907e-05
2.92461e-05
3.11572e-05
3.31237e-05
3.51453e-05
3.72215e-05
3.93519e-05
4.15362e-05
4.37739e-05
4.60646e-05
4.84078e-05
5.0803e-05
5.32497e-05
5.57474e-05
5.82955e-05
6.08933e-05
6.35403e-05
6.62356e-05
6.89785e-05
7.17685e-05
7.46048e-05
7.74867e-05
8.04134e-05
8.33842e-05
8.63982e-05
8.94546e-05
9.25525e-05
9.56909e-05
9.88689e-05
0.000102086
0.00010534
0.00010863
0.000111957
0.000115318
0.000118712
0.000122138
0.000125596
0.000129083
0.000132599
0.000136142
0.000139711
0.000143304
0.00014692
0.000150558
0.000154215
0.000157892
0.000161585
0.000165294
0.000169016
0.000172751
0.000176496
0.000180249
0.000184009
0.000187774
0.000191542
0.000195311
0.000199079
0.000202844
0.000206604
0.000210356
0.0002141
0.000217831
0.000221549
0.00022525
0.000228933
0.000232594
0.000236232
0.000239843
0.000243426
0.000246978
0.000250497
0.000253981
0.000257429
0.000260842
0.000264223
0.000267577
0.000270916
0.000274259
0.000277638
0.0002811
0.000284712
0.000288561
0.000292747
0.000297374
0.000302499
-6.9696e-07
-1.02392e-06
-1.18119e-06
-1.27459e-06
-1.3131e-06
-1.2919e-06
-1.2106e-06
-1.06945e-06
-8.68281e-07
-6.06895e-07
-2.85119e-07
9.7221e-08
5.40247e-07
1.044e-06
1.60845e-06
2.23356e-06
2.91921e-06
3.66528e-06
4.47161e-06
5.33808e-06
6.2645e-06
7.25067e-06
8.29635e-06
9.40133e-06
1.05654e-05
1.17885e-05
1.30704e-05
1.4411e-05
1.58101e-05
1.72675e-05
1.87829e-05
2.0356e-05
2.19866e-05
2.36744e-05
2.54189e-05
2.722e-05
2.90771e-05
3.09901e-05
3.29586e-05
3.49822e-05
3.70605e-05
3.91932e-05
4.13798e-05
4.362e-05
4.59131e-05
4.82589e-05
5.06568e-05
5.31063e-05
5.56069e-05
5.81579e-05
6.07589e-05
6.3409e-05
6.61076e-05
6.8854e-05
7.16476e-05
7.44876e-05
7.73733e-05
8.03041e-05
8.3279e-05
8.62974e-05
8.93583e-05
9.24608e-05
9.56041e-05
9.87871e-05
0.000102009
0.000105268
0.000108565
0.000111896
0.000115263
0.000118663
0.000122096
0.00012556
0.000129054
0.000132576
0.000136126
0.000139702
0.000143302
0.000146926
0.000150571
0.000154237
0.000157922
0.000161624
0.000165341
0.000169073
0.000172817
0.000176572
0.000180335
0.000184106
0.000187882
0.000191662
0.000195443
0.000199223
0.000203002
0.000206776
0.000210544
0.000214303
0.000218052
0.000221788
0.000225509
0.000229214
0.0002329
0.000236565
0.000240207
0.000243824
0.000247416
0.00025098
0.000254517
0.000258028
0.000261515
0.000264982
0.000268438
0.000271897
0.000275377
0.000278908
0.000282529
0.00028629
0.00029025
0.000294468
0.000298994
0.000303831
-9.98139e-07
-1.32985e-06
-1.48847e-06
-1.58136e-06
-1.61776e-06
-1.59346e-06
-1.50872e-06
-1.36412e-06
-1.1596e-06
-8.95004e-07
-5.70232e-07
-1.85153e-07
2.60356e-07
7.66362e-07
1.33288e-06
1.9599e-06
2.64737e-06
3.3952e-06
4.20322e-06
5.07128e-06
5.99921e-06
6.98685e-06
8.034e-06
9.14049e-06
1.03061e-05
1.15308e-05
1.28143e-05
1.41566e-05
1.55573e-05
1.70165e-05
1.85336e-05
2.01086e-05
2.17411e-05
2.34308e-05
2.51774e-05
2.69805e-05
2.88399e-05
3.07553e-05
3.27262e-05
3.47523e-05
3.68333e-05
3.89688e-05
4.11583e-05
4.34014e-05
4.56977e-05
4.80466e-05
5.04478e-05
5.29008e-05
5.54049e-05
5.79597e-05
6.05644e-05
6.32185e-05
6.59212e-05
6.86719e-05
7.147e-05
7.43146e-05
7.72052e-05
8.01409e-05
8.31209e-05
8.61446e-05
8.9211e-05
9.23192e-05
9.54684e-05
9.86575e-05
0.000101886
0.000105151
0.000108454
0.000111793
0.000115167
0.000118574
0.000122014
0.000125486
0.000128988
0.000132518
0.000136077
0.000139661
0.00014327
0.000146903
0.000150558
0.000154234
0.000157929
0.000161641
0.000165369
0.000169112
0.000172867
0.000176634
0.00018041
0.000184193
0.000187982
0.000191775
0.000195571
0.000199366
0.00020316
0.000206951
0.000210736
0.000214513
0.000218281
0.000222038
0.000225782
0.000229511
0.000233224
0.000236918
0.000240592
0.000244246
0.000247878
0.000251488
0.000255078
0.000258648
0.000262203
0.000265749
0.000269294
0.000272852
0.00027644
0.000280083
0.000283812
0.000287661
0.000291668
0.000295867
0.000300275
0.000304876
-1.37367e-06
-1.70757e-06
-1.86654e-06
-1.95896e-06
-1.99391e-06
-1.96729e-06
-1.87977e-06
-1.73225e-06
-1.52485e-06
-1.25745e-06
-9.29968e-07
-5.42314e-07
-9.438e-08
4.13917e-07
9.82599e-07
1.61165e-06
2.30106e-06
3.05074e-06
3.86059e-06
4.73044e-06
5.66012e-06
6.64945e-06
7.6983e-06
8.80652e-06
9.97396e-06
1.12005e-05
1.24859e-05
1.38301e-05
1.52329e-05
1.66941e-05
1.82134e-05
1.97906e-05
2.14253e-05
2.31173e-05
2.48664e-05
2.66721e-05
2.85341e-05
3.04522e-05
3.24261e-05
3.44553e-05
3.65395e-05
3.86782e-05
4.08711e-05
4.31178e-05
4.54178e-05
4.77706e-05
5.01758e-05
5.26329e-05
5.51413e-05
5.77005e-05
6.03097e-05
6.29685e-05
6.56762e-05
6.8432e-05
7.12354e-05
7.40856e-05
7.69819e-05
7.99235e-05
8.29096e-05
8.59396e-05
8.90125e-05
9.21274e-05
9.52836e-05
9.84799e-05
0.000101715
0.000104989
0.0001083
0.000111647
0.000115029
0.000118445
0.000121894
0.000125375
0.000128886
0.000132426
0.000135994
0.000139589
0.000143209
0.000146852
0.000150519
0.000154206
0.000157912
0.000161637
0.000165377
0.000169133
0.000172901
0.000176682
0.000180472
0.00018427
0.000188074
0.000191883
0.000195694
0.000199507
0.000203318
0.000207127
0.000210931
0.000214729
0.000218519
0.000222298
0.000226067
0.000229822
0.000233562
0.000237287
0.000240995
0.000244686
0.000248359
0.000252014
0.000255654
0.000259281
0.000262898
0.000266512
0.000270133
0.00027377
0.000277441
0.000281163
0.00028496
0.000288855
0.000292872
0.000297026
0.000301319
0.00030573
-1.82322e-06
-2.15822e-06
-2.31697e-06
-2.40867e-06
-2.4424e-06
-2.41398e-06
-2.32421e-06
-2.17421e-06
-1.96425e-06
-1.69433e-06
-1.36436e-06
-9.74275e-07
-5.23993e-07
-1.34272e-08
5.57463e-07
1.18866e-06
1.88012e-06
2.63179e-06
3.44358e-06
4.31535e-06
5.24694e-06
6.2382e-06
7.28899e-06
8.39919e-06
9.56868e-06
1.07973e-05
1.2085e-05
1.34315e-05
1.48366e-05
1.63001e-05
1.78219e-05
1.94016e-05
2.10389e-05
2.27337e-05
2.44856e-05
2.62943e-05
2.81595e-05
3.00809e-05
3.20581e-05
3.40908e-05
3.61787e-05
3.83212e-05
4.05182e-05
4.2769e-05
4.50733e-05
4.74306e-05
4.98404e-05
5.23023e-05
5.48156e-05
5.73799e-05
5.99945e-05
6.26588e-05
6.53722e-05
6.8134e-05
7.09436e-05
7.38002e-05
7.67032e-05
7.96516e-05
8.26449e-05
8.56821e-05
8.87625e-05
9.18853e-05
9.50495e-05
9.82541e-05
0.000101498
0.000104781
0.000108101
0.000111457
0.000114849
0.000118275
0.000121734
0.000125225
0.000128747
0.000132299
0.000135878
0.000139485
0.000143117
0.000146773
0.000150452
0.000154152
0.000157872
0.00016161
0.000165365
0.000169135
0.000172919
0.000176715
0.000180521
0.000184335
0.000188157
0.000191983
0.000195813
0.000199644
0.000203475
0.000207304
0.00021113
0.00021495
0.000218763
0.000222567
0.000226361
0.000230144
0.000233914
0.000237671
0.000241413
0.000245141
0.000248854
0.000252553
0.00025624
0.000259918
0.000263591
0.000267265
0.000270947
0.000274648
0.00027838
0.000282157
0.000285995
0.00028991
0.000293914
0.000298014
0.000302203
0.00030646
-2.34651e-06
-2.68215e-06
-2.84058e-06
-2.93143e-06
-2.96395e-06
-2.934e-06
-2.84236e-06
-2.69022e-06
-2.47799e-06
-2.20577e-06
-1.87348e-06
-1.48106e-06
-1.02848e-06
-5.15669e-07
5.74303e-08
6.90814e-07
1.38443e-06
2.13821e-06
2.95206e-06
3.82588e-06
4.75955e-06
5.75292e-06
6.80588e-06
7.91832e-06
9.09011e-06
1.03212e-05
1.16113e-05
1.29603e-05
1.43681e-05
1.58343e-05
1.73588e-05
1.89414e-05
2.05818e-05
2.22797e-05
2.40349e-05
2.58471e-05
2.77159e-05
2.9641e-05
3.1622e-05
3.36587e-05
3.57507e-05
3.78976e-05
4.00991e-05
4.23546e-05
4.46638e-05
4.70262e-05
4.94414e-05
5.19087e-05
5.44277e-05
5.69977e-05
5.96184e-05
6.2289e-05
6.5009e-05
6.77777e-05
7.05944e-05
7.34583e-05
7.63688e-05
7.93251e-05
8.23263e-05
8.53719e-05
8.84609e-05
9.15925e-05
9.47659e-05
9.798e-05
0.000101234
0.000104526
0.000107857
0.000111224
0.000114627
0.000118064
0.000121535
0.000125038
0.000128572
0.000132136
0.000135728
0.000139348
0.000142994
0.000146664
0.000150358
0.000154073
0.000157808
0.000161562
0.000165333
0.000169119
0.00017292
0.000176733
0.000180557
0.00018439
0.00018823
0.000192076
0.000195925
0.000199777
0.00020363
0.000207481
0.00021133
0.000215174
0.000219012
0.000222843
0.000226665
0.000230477
0.000234278
0.000238067
0.000241843
0.000245608
0.00024936
0.000253101
0.000256832
0.000260557
0.000264279
0.000268004
0.000271737
0.000275488
0.000279265
0.000283079
0.00028694
0.000290859
0.00029484
0.000298885
0.000302983
0.000307115
-2.94365e-06
-3.27956e-06
-3.43775e-06
-3.52782e-06
-3.55916e-06
-3.52778e-06
-3.4345e-06
-3.28049e-06
-3.06622e-06
-2.79185e-06
-2.45739e-06
-2.06275e-06
-1.60791e-06
-1.09284e-06
-5.17522e-07
1.1807e-07
8.13892e-07
1.56987e-06
2.38591e-06
3.26193e-06
4.19783e-06
5.1935e-06
6.24884e-06
7.36374e-06
8.5381e-06
9.77179e-06
1.10647e-05
1.24165e-05
1.38272e-05
1.52965e-05
1.68241e-05
1.84099e-05
2.00537e-05
2.17553e-05
2.35142e-05
2.53302e-05
2.7203e-05
2.91323e-05
3.11176e-05
3.31588e-05
3.52554e-05
3.74071e-05
3.96136e-05
4.18744e-05
4.41892e-05
4.65573e-05
4.89783e-05
5.14518e-05
5.39771e-05
5.65537e-05
5.91812e-05
6.1859e-05
6.45863e-05
6.73627e-05
7.01873e-05
7.30595e-05
7.59785e-05
7.89435e-05
8.19538e-05
8.50086e-05
8.81073e-05
9.12488e-05
9.44324e-05
9.76571e-05
0.000100922
0.000104226
0.000107568
0.000110947
0.000114362
0.000117812
0.000121296
0.000124812
0.00012836
0.000131938
0.000135545
0.00013918
0.000142841
0.000146527
0.000150236
0.000153968
0.00015772
0.000161491
0.000165279
0.000169084
0.000172903
0.000176736
0.000180579
0.000184432
0.000188293
0.00019216
0.000196032
0.000199907
0.000203783
0.000207658
0.000211531
0.000215401
0.000219266
0.000223125
0.000226975
0.000230817
0.00023465
0.000238472
0.000242283
0.000246084
0.000249874
0.000253655
0.000257428
0.000261196
0.000264962
0.00026873
0.000272506
0.000276296
0.000280106
0.000283945
0.000287818
0.000291731
0.000295686
0.000299679
0.0003037
0.000307731
-3.61492e-06
-3.95078e-06
-4.10872e-06
-4.19814e-06
-4.22843e-06
-4.1957e-06
-4.1009e-06
-3.94522e-06
-3.72908e-06
-3.45272e-06
-3.11617e-06
-2.7194e-06
-2.26235e-06
-1.74504e-06
-1.16747e-06
-5.29634e-07
1.68435e-07
9.26682e-07
1.74503e-06
2.62339e-06
3.56169e-06
4.55984e-06
5.61776e-06
6.73535e-06
7.91251e-06
9.1491e-06
1.0445e-05
1.17999e-05
1.32138e-05
1.46864e-05
1.62175e-05
1.7807e-05
1.94546e-05
2.11601e-05
2.29232e-05
2.47435e-05
2.66207e-05
2.85546e-05
3.05446e-05
3.25907e-05
3.46924e-05
3.68495e-05
3.90616e-05
4.13282e-05
4.3649e-05
4.60235e-05
4.84511e-05
5.09313e-05
5.34636e-05
5.60476e-05
5.86827e-05
6.13683e-05
6.41039e-05
6.68888e-05
6.97222e-05
7.26034e-05
7.55318e-05
7.85065e-05
8.15268e-05
8.4592e-05
8.77013e-05
9.08539e-05
9.40488e-05
9.72852e-05
0.000100562
0.000103878
0.000107233
0.000110625
0.000114054
0.000117518
0.000121016
0.000124547
0.00012811
0.000131704
0.000135327
0.000138978
0.000142656
0.000146359
0.000150086
0.000153836
0.000157607
0.000161397
0.000165205
0.00016903
0.000172869
0.000176723
0.000180588
0.000184463
0.000188346
0.000192236
0.000196132
0.000200031
0.000203932
0.000207833
0.000211733
0.000215631
0.000219524
0.000223411
0.000227292
0.000231166
0.000235031
0.000238886
0.000242732
0.000246568
0.000250396
0.000254215
0.000258027
0.000261834
0.000265639
0.000269445
0.000273257
0.000277079
0.000280915
0.00028477
0.000288649
0.000292552
0.00029648
0.000300427
0.000304383
0.000308333
-4.36053e-06
-4.69623e-06
-4.85381e-06
-4.94265e-06
-4.97205e-06
-4.93809e-06
-4.84187e-06
-4.68462e-06
-4.46678e-06
-4.18852e-06
-3.84996e-06
-3.4511e-06
-2.9919e-06
-2.47236e-06
-1.89252e-06
-1.2524e-06
-5.52028e-07
2.0856e-07
1.02931e-06
1.91015e-06
2.85101e-06
3.85183e-06
4.91254e-06
6.03303e-06
7.21321e-06
8.45294e-06
9.75205e-06
1.11104e-05
1.25277e-05
1.4004e-05
1.55389e-05
1.71324e-05
1.87842e-05
2.0494e-05
2.22616e-05
2.40866e-05
2.59687e-05
2.79075e-05
2.99027e-05
3.19542e-05
3.40615e-05
3.62244e-05
3.84426e-05
4.07157e-05
4.30431e-05
4.54245e-05
4.78593e-05
5.03469e-05
5.2887e-05
5.54791e-05
5.81225e-05
6.08168e-05
6.35614e-05
6.63555e-05
6.91985e-05
7.20897e-05
7.50284e-05
7.80137e-05
8.10451e-05
8.41217e-05
8.72427e-05
9.04073e-05
9.36146e-05
9.68638e-05
0.000100154
0.000103484
0.000106853
0.000110259
0.000113703
0.000117182
0.000120696
0.000124243
0.000127823
0.000131434
0.000135074
0.000138743
0.000142439
0.000146161
0.000149908
0.000153677
0.000157468
0.000161279
0.000165109
0.000168955
0.000172817
0.000176693
0.000180581
0.00018448
0.000188388
0.000192303
0.000196225
0.00020015
0.000204078
0.000208007
0.000211935
0.000215861
0.000219784
0.000223702
0.000227615
0.00023152
0.000235418
0.000239308
0.000243188
0.00024706
0.000250924
0.00025478
0.000258629
0.000262473
0.000266313
0.000270154
0.000273996
0.000277844
0.0002817
0.000285568
0.000289448
0.000293341
0.000297244
0.000301152
0.000305055
0.000308939
-5.18056e-06
-5.51622e-06
-5.67338e-06
-5.76162e-06
-5.79024e-06
-5.75522e-06
-5.65766e-06
-5.49893e-06
-5.27947e-06
-4.99941e-06
-4.6589e-06
-4.25798e-06
-3.79665e-06
-3.27492e-06
-2.6928e-06
-2.05036e-06
-1.34762e-06
-5.84604e-07
2.38653e-07
1.12211e-06
2.0657e-06
3.06938e-06
4.13306e-06
5.25667e-06
6.44008e-06
7.68316e-06
8.98576e-06
1.03477e-05
1.17689e-05
1.32491e-05
1.47882e-05
1.6386e-05
1.80423e-05
1.97568e-05
2.15292e-05
2.33593e-05
2.52466e-05
2.71908e-05
2.91916e-05
3.12489e-05
3.33624e-05
3.55317e-05
3.77566e-05
4.00366e-05
4.23712e-05
4.47601e-05
4.72026e-05
4.96984e-05
5.2247e-05
5.48478e-05
5.75003e-05
6.0204e-05
6.29583e-05
6.57625e-05
6.8616e-05
7.1518e-05
7.44679e-05
7.74648e-05
8.05081e-05
8.35971e-05
8.67308e-05
8.99085e-05
9.31294e-05
9.63925e-05
9.96968e-05
0.000103042
0.000106426
0.000109848
0.000113308
0.000116804
0.000120335
0.0001239
0.000127497
0.000131127
0.000134786
0.000138474
0.000142191
0.000145933
0.000149701
0.000153492
0.000157305
0.000161138
0.000164991
0.000168861
0.000172747
0.000176647
0.00018056
0.000184485
0.000188419
0.000192361
0.000196309
0.000200263
0.000204219
0.000208177
0.000212135
0.000216092
0.000220046
0.000223997
0.000227942
0.00023188
0.000235812
0.000239736
0.000243652
0.000247559
0.000251459
0.00025535
0.000259235
0.000263113
0.000266987
0.000270858
0.000274728
0.000278599
0.000282472
0.00028635
0.00029023
0.000294114
0.000297996
0.000301871
0.00030573
0.000309562
-6.07514e-06
-6.41096e-06
-6.56778e-06
-6.6554e-06
-6.68327e-06
-6.64731e-06
-6.54853e-06
-6.38837e-06
-6.16733e-06
-5.88557e-06
-5.54316e-06
-5.14021e-06
-4.67675e-06
-4.15282e-06
-3.56844e-06
-2.92365e-06
-2.21847e-06
-1.45293e-06
-6.27043e-07
2.59169e-07
1.20566e-06
2.21237e-06
3.27922e-06
4.40612e-06
5.59296e-06
6.83961e-06
8.14593e-06
9.51177e-06
1.0937e-05
1.24214e-05
1.3965e-05
1.55674e-05
1.72285e-05
1.8948e-05
2.07257e-05
2.25611e-05
2.4454e-05
2.6404e-05
2.8411e-05
3.04746e-05
3.25947e-05
3.4771e-05
3.7003e-05
3.92905e-05
4.16329e-05
4.40299e-05
4.64809e-05
4.89854e-05
5.15431e-05
5.41534e-05
5.68157e-05
5.95296e-05
6.22944e-05
6.51095e-05
6.79742e-05
7.08878e-05
7.38497e-05
7.68592e-05
7.99154e-05
8.30177e-05
8.61652e-05
8.93571e-05
9.25926e-05
9.58707e-05
9.91905e-05
0.000102551
0.000105952
0.000109391
0.000112868
0.000116382
0.000119932
0.000123516
0.000127133
0.000130782
0.000134462
0.000138171
0.000141909
0.000145674
0.000149464
0.000153278
0.000157114
0.000160972
0.000164849
0.000168745
0.000172657
0.000176583
0.000180523
0.000184475
0.000188437
0.000192408
0.000196386
0.000200368
0.000204355
0.000208344
0.000212334
0.000216323
0.00022031
0.000224294
0.000228272
0.000232246
0.000236212
0.000240171
0.000244122
0.000248066
0.000252001
0.000255927
0.000259846
0.000263758
0.000267663
0.000271563
0.000275458
0.00027935
0.000283239
0.000287125
0.000291007
0.000294883
0.000298748
0.000302597
0.000306422
0.000310212
-7.04454e-06
-7.3806e-06
-7.53726e-06
-7.62432e-06
-7.65142e-06
-7.61459e-06
-7.51471e-06
-7.35317e-06
-7.13059e-06
-6.84714e-06
-6.50289e-06
-6.09794e-06
-5.63238e-06
-5.10625e-06
-4.51959e-06
-3.87241e-06
-3.16474e-06
-2.39657e-06
-1.56791e-06
-6.78796e-07
2.70746e-07
1.28065e-06
2.35084e-06
3.48122e-06
4.67168e-06
5.92211e-06
7.23238e-06
8.60235e-06
1.00319e-05
1.15208e-05
1.30691e-05
1.46764e-05
1.63426e-05
1.80675e-05
1.98506e-05
2.16917e-05
2.35906e-05
2.55469e-05
2.75604e-05
2.96309e-05
3.17582e-05
3.39419e-05
3.61817e-05
3.84772e-05
4.08279e-05
4.32336e-05
4.56936e-05
4.82076e-05
5.0775e-05
5.33955e-05
5.60683e-05
5.87931e-05
6.15691e-05
6.43958e-05
6.72725e-05
7.01987e-05
7.31735e-05
7.61964e-05
7.92665e-05
8.23831e-05
8.55453e-05
8.87524e-05
9.20036e-05
9.52979e-05
9.86344e-05
0.000102012
0.000105431
0.000108888
0.000112384
0.000115918
0.000119487
0.000123091
0.000126729
0.0001304
0.000134102
0.000137834
0.000141594
0.000145382
0.000149197
0.000153036
0.000156898
0.000160781
0.000164685
0.000168607
0.000172547
0.000176502
0.00018047
0.000184451
0.000188443
0.000192444
0.000196453
0.000200467
0.000204486
0.000208508
0.000212531
0.000216554
0.000220575
0.000224593
0.000228607
0.000232615
0.000236618
0.000240613
0.0002446
0.000248579
0.00025255
0.000256512
0.000260464
0.000264409
0.000268344
0.000272272
0.000276192
0.000280104
0.000284008
0.000287903
0.000291787
0.000295658
0.000299511
0.00030334
0.000307138
0.000310896
-8.08912e-06
-8.42539e-06
-8.582e-06
-8.66865e-06
-8.69502e-06
-8.6573e-06
-8.55638e-06
-8.39356e-06
-8.16945e-06
-7.88432e-06
-7.53827e-06
-7.13136e-06
-6.66371e-06
-6.13538e-06
-5.54641e-06
-4.89681e-06
-4.18656e-06
-3.41566e-06
-2.58411e-06
-1.69194e-06
-7.39201e-07
2.74051e-07
1.34773e-06
2.48176e-06
3.67603e-06
4.93043e-06
6.24487e-06
7.6192e-06
9.05331e-06
1.0547e-05
1.21002e-05
1.37127e-05
1.53843e-05
1.71147e-05
1.89037e-05
2.07509e-05
2.26561e-05
2.46191e-05
2.66397e-05
2.87175e-05
3.08524e-05
3.30441e-05
3.52921e-05
3.75962e-05
3.99558e-05
4.23707e-05
4.48404e-05
4.73644e-05
4.99423e-05
5.25736e-05
5.52577e-05
5.7994e-05
6.0782e-05
6.36211e-05
6.65107e-05
6.94501e-05
7.24388e-05
7.54759e-05
7.85607e-05
8.16926e-05
8.48706e-05
8.80939e-05
9.13619e-05
9.46735e-05
9.80278e-05
0.000101424
0.000104861
0.000108338
0.000111855
0.000115408
0.000118999
0.000122625
0.000126285
0.000129979
0.000133704
0.00013746
0.000141246
0.000145059
0.000148899
0.000152764
0.000156653
0.000160565
0.000164497
0.000168448
0.000172416
0.000176401
0.0001804
0.000184412
0.000188436
0.000192469
0.00019651
0.000200558
0.000204611
0.000208667
0.000212725
0.000216783
0.00022084
0.000224894
0.000228944
0.00023299
0.000237029
0.000241061
0.000245085
0.000249101
0.000253108
0.000257104
0.000261091
0.000265067
0.000269033
0.000272988
0.000276933
0.000280865
0.000284785
0.00028869
0.000292579
0.000296448
0.000300293
0.000304108
0.000307887
0.00031162
-9.20925e-06
-9.54569e-06
-9.70224e-06
-9.78862e-06
-9.81434e-06
-9.77572e-06
-9.67378e-06
-9.50972e-06
-9.28414e-06
-8.99734e-06
-8.64949e-06
-8.24067e-06
-7.77096e-06
-7.24043e-06
-6.64912e-06
-5.99703e-06
-5.28412e-06
-4.51038e-06
-3.67582e-06
-2.78047e-06
-1.82439e-06
-8.07649e-07
2.69672e-07
1.4075e-06
2.60575e-06
3.86433e-06
5.18314e-06
6.56207e-06
8.00098e-06
9.49972e-06
1.10581e-05
1.26761e-05
1.43533e-05
1.60896e-05
1.78846e-05
1.97383e-05
2.16503e-05
2.36204e-05
2.56484e-05
2.7734e-05
2.98771e-05
3.20771e-05
3.43339e-05
3.66471e-05
3.90162e-05
4.14409e-05
4.39208e-05
4.64555e-05
4.90445e-05
5.16872e-05
5.43832e-05
5.71318e-05
5.99325e-05
6.27847e-05
6.5688e-05
6.86416e-05
7.16448e-05
7.46971e-05
7.77976e-05
8.09456e-05
8.41404e-05
8.7381e-05
9.06668e-05
9.39968e-05
9.73702e-05
0.000100786
0.000104243
0.000107741
0.000111279
0.000114855
0.000118468
0.000122117
0.000125801
0.000129519
0.000133269
0.000137051
0.000140862
0.000144702
0.00014857
0.000152463
0.000156381
0.000160322
0.000164283
0.000168265
0.000172265
0.000176281
0.000180313
0.000184358
0.000188415
0.000192482
0.000196558
0.000200641
0.000204729
0.000208821
0.000212916
0.000217011
0.000221105
0.000225197
0.000229285
0.000233369
0.000237446
0.000241516
0.000245578
0.000249631
0.000253674
0.000257707
0.000261728
0.000265737
0.000269733
0.000273716
0.000277685
0.000281639
0.000285575
0.000289493
0.000293389
0.00029726
0.000301102
0.000304908
0.000308673
0.000312389
-1.04052e-05
-1.07419e-05
-1.08983e-05
-1.09844e-05
-1.10096e-05
-1.09701e-05
-1.08671e-05
-1.07019e-05
-1.04749e-05
-1.01864e-05
-9.83681e-06
-9.42607e-06
-8.95432e-06
-8.42159e-06
-7.82791e-06
-7.17326e-06
-6.45761e-06
-5.68093e-06
-4.84325e-06
-3.94461e-06
-2.98507e-06
-1.96471e-06
-8.83617e-07
2.58163e-07
1.46056e-06
2.72351e-06
4.04691e-06
5.43065e-06
6.87459e-06
8.37858e-06
9.94247e-06
1.15661e-05
1.32492e-05
1.49916e-05
1.67932e-05
1.86536e-05
2.05728e-05
2.25504e-05
2.45862e-05
2.66801e-05