/*--------------------------------*- C++ -*----------------------------------*\
  =========                 |
  \\      /  F ield         | OpenFOAM: The Open Source CFD Toolbox
   \\    /   O peration     | Website:  https://openfoam.org
    \\  /    A nd           | Version:  8
     \\/     M anipulation  |
\*---------------------------------------------------------------------------*/
FoamFile
{
    version     2.0;
    format      ascii;
    class       surfaceScalarField;
    location    "40";
    object      phi;
}
// * * * * * * * * * * * * * * * * * * * * * * * * * * * * * * * * * * * * * //

dimensions      [0 3 -1 0 0 0 0];

internalField   nonuniform List<scalar> 
92320
(
5.10741e-09
-5.15281e-09
-1.05398e-08
1.56473e-08
-4.7053e-08
3.65127e-08
-9.8707e-08
5.16545e-08
-1.59966e-07
6.12598e-08
-2.26746e-07
6.67811e-08
-2.96412e-07
6.96662e-08
-3.67406e-07
7.09944e-08
-4.3888e-07
7.14735e-08
-5.10416e-07
7.15347e-08
-5.81837e-07
7.14205e-08
-6.5309e-07
7.12532e-08
-7.24175e-07
7.10853e-08
-7.95109e-07
7.09343e-08
-8.65911e-07
7.08016e-08
-9.36593e-07
7.06826e-08
-1.00716e-06
7.05715e-08
-1.07763e-06
7.04631e-08
-1.14798e-06
7.0354e-08
-1.21822e-06
7.02424e-08
-1.28835e-06
7.01275e-08
-1.35836e-06
7.00086e-08
-1.42824e-06
6.98846e-08
-1.498e-06
6.9754e-08
-1.56761e-06
6.96159e-08
-1.63708e-06
6.947e-08
-1.7064e-06
6.93168e-08
-1.77556e-06
6.9157e-08
-1.84455e-06
6.89902e-08
-1.91336e-06
6.88155e-08
-1.98199e-06
6.86318e-08
-2.05043e-06
6.84388e-08
-2.11867e-06
6.82365e-08
-2.18669e-06
6.80255e-08
-2.2545e-06
6.78058e-08
-2.32208e-06
6.75769e-08
-2.38942e-06
6.73384e-08
-2.4565e-06
6.70897e-08
-2.52334e-06
6.68305e-08
-2.5899e-06
6.65608e-08
-2.65618e-06
6.62805e-08
-2.72217e-06
6.59894e-08
-2.78786e-06
6.56875e-08
-2.85323e-06
6.53744e-08
-2.91828e-06
6.50493e-08
-2.98299e-06
6.47121e-08
-3.04735e-06
6.43625e-08
-3.11135e-06
6.40005e-08
-3.17498e-06
6.36262e-08
-3.23822e-06
6.32392e-08
-3.30106e-06
6.28391e-08
-3.36348e-06
6.24253e-08
-3.42548e-06
6.19978e-08
-3.48704e-06
6.15564e-08
-3.54814e-06
6.11011e-08
-3.60877e-06
6.06317e-08
-3.66892e-06
6.0148e-08
-3.72857e-06
5.96497e-08
-3.78771e-06
5.91366e-08
-3.84632e-06
5.86083e-08
-3.90438e-06
5.80645e-08
-3.96189e-06
5.75054e-08
-4.01882e-06
5.69309e-08
-4.07516e-06
5.6341e-08
-4.13089e-06
5.57356e-08
-4.18601e-06
5.51143e-08
-4.24049e-06
5.44771e-08
-4.29431e-06
5.38241e-08
-4.34747e-06
5.31553e-08
-4.39994e-06
5.24709e-08
-4.45171e-06
5.17709e-08
-4.50276e-06
5.10553e-08
-4.55309e-06
5.03243e-08
-4.60266e-06
4.9578e-08
-4.65148e-06
4.88167e-08
-4.69952e-06
4.80409e-08
-4.74677e-06
4.7251e-08
-4.79322e-06
4.64474e-08
-4.83885e-06
4.56304e-08
-4.88365e-06
4.48006e-08
-4.92761e-06
4.39588e-08
-4.97072e-06
4.3106e-08
-5.01296e-06
4.2243e-08
-5.05433e-06
4.13705e-08
-5.09482e-06
4.04895e-08
-5.13442e-06
3.96017e-08
-5.17313e-06
3.87082e-08
-5.21094e-06
3.78102e-08
-5.24785e-06
3.6909e-08
-5.28386e-06
3.60064e-08
-5.31897e-06
3.51054e-08
-5.35317e-06
3.4208e-08
-5.38649e-06
3.33158e-08
-5.41892e-06
3.243e-08
-5.45047e-06
3.15523e-08
-5.48115e-06
3.06852e-08
-5.51098e-06
2.98307e-08
-5.53997e-06
2.89897e-08
-5.56814e-06
2.81613e-08
-5.59548e-06
2.7343e-08
-5.62201e-06
2.65298e-08
-5.64772e-06
2.5711e-08
-5.67259e-06
2.48679e-08
-5.69656e-06
2.39705e-08
-5.71953e-06
2.29743e-08
-5.74135e-06
2.18148e-08
-5.76175e-06
2.04017e-08
-5.78037e-06
1.86189e-08
-5.7967e-06
1.63368e-08
-5.81016e-06
1.34539e-08
-5.82016e-06
1.00068e-08
-5.82663e-06
6.4689e-09
-5.83114e-06
4.50398e-09
-5.83977e-06
8.628e-09
-5.87114e-06
3.13701e-08
-5.97835e-06
1.07215e-07
-6.30658e-06
3.28223e-07
-7.23705e-06
9.30472e-07
-9.73852e-06
2.50148e-06
6.5816e-06
-1.63201e-05
-1.58163e-08
1.06637e-08
-7.60428e-08
7.58752e-08
-1.77127e-07
1.37597e-07
-3.09353e-07
1.83879e-07
-4.63053e-07
2.14958e-07
-6.30444e-07
2.34171e-07
-8.05944e-07
2.45165e-07
-9.85868e-07
2.50919e-07
-1.16796e-06
2.53565e-07
-1.35093e-06
2.54508e-07
-1.53412e-06
2.54605e-07
-1.7172e-06
2.54335e-07
-1.90005e-06
2.53938e-07
-2.08263e-06
2.53517e-07
-2.26494e-06
2.53107e-07
-2.44697e-06
2.52715e-07
-2.62873e-06
2.52333e-07
-2.81022e-06
2.51954e-07
-2.99144e-06
2.51568e-07
-3.17236e-06
2.51171e-07
-3.35299e-06
2.50757e-07
-3.53331e-06
2.50324e-07
-3.71329e-06
2.49871e-07
-3.89294e-06
2.49396e-07
-4.07222e-06
2.48898e-07
-4.25112e-06
2.48373e-07
-4.42962e-06
2.47822e-07
-4.60771e-06
2.47243e-07
-4.78535e-06
2.46636e-07
-4.96254e-06
2.46001e-07
-5.13925e-06
2.45338e-07
-5.31545e-06
2.44644e-07
-5.49114e-06
2.43919e-07
-5.66627e-06
2.43161e-07
-5.84084e-06
2.42371e-07
-6.01481e-06
2.41549e-07
-6.18816e-06
2.40692e-07
-6.36088e-06
2.39801e-07
-6.53292e-06
2.38876e-07
-6.70428e-06
2.37914e-07
-6.87491e-06
2.36915e-07
-7.0448e-06
2.35878e-07
-7.21391e-06
2.34803e-07
-7.38223e-06
2.33689e-07
-7.54971e-06
2.32535e-07
-7.71634e-06
2.3134e-07
-7.88208e-06
2.30104e-07
-8.04691e-06
2.28825e-07
-8.21078e-06
2.27503e-07
-8.37368e-06
2.26138e-07
-8.53557e-06
2.24728e-07
-8.69642e-06
2.23273e-07
-8.8562e-06
2.21773e-07
-9.01487e-06
2.20226e-07
-9.1724e-06
2.18632e-07
-9.32876e-06
2.1699e-07
-9.48391e-06
2.153e-07
-9.63782e-06
2.13561e-07
-9.79046e-06
2.11772e-07
-9.94178e-06
2.09934e-07
-1.00918e-05
2.08045e-07
-1.02404e-05
2.06106e-07
-1.03875e-05
2.04115e-07
-1.05333e-05
2.02074e-07
-1.06775e-05
1.99981e-07
-1.08203e-05
1.97838e-07
-1.09614e-05
1.95643e-07
-1.1101e-05
1.93398e-07
-1.12389e-05
1.91101e-07
-1.13752e-05
1.88754e-07
-1.15098e-05
1.86358e-07
-1.16427e-05
1.83912e-07
-1.17738e-05
1.81419e-07
-1.19031e-05
1.78878e-07
-1.20305e-05
1.76292e-07
-1.21562e-05
1.73662e-07
-1.22799e-05
1.7099e-07
-1.24017e-05
1.68278e-07
-1.25216e-05
1.65528e-07
-1.26396e-05
1.62744e-07
-1.27555e-05
1.59928e-07
-1.28695e-05
1.57084e-07
-1.29815e-05
1.54216e-07
-1.30914e-05
1.51329e-07
-1.31994e-05
1.48427e-07
-1.33053e-05
1.45517e-07
-1.34092e-05
1.42605e-07
-1.35111e-05
1.397e-07
-1.3611e-05
1.36808e-07
-1.37089e-05
1.33939e-07
-1.38049e-05
1.31102e-07
-1.3899e-05
1.28309e-07
-1.39913e-05
1.25572e-07
-1.40817e-05
1.22907e-07
-1.41705e-05
1.20326e-07
-1.42577e-05
1.17846e-07
-1.43433e-05
1.15484e-07
-1.44276e-05
1.13258e-07
-1.45106e-05
1.11187e-07
-1.45926e-05
1.09285e-07
-1.46736e-05
1.07567e-07
-1.47539e-05
1.06042e-07
-1.48338e-05
1.0471e-07
-1.49134e-05
1.03562e-07
-1.4993e-05
1.02575e-07
-1.50729e-05
1.01725e-07
-1.51535e-05
1.01016e-07
-1.52354e-05
1.00555e-07
-1.53198e-05
1.00711e-07
-1.54088e-05
1.02457e-07
-1.55068e-05
1.08039e-07
-1.56227e-05
1.22313e-07
-1.57736e-05
1.55403e-07
-1.5993e-05
2.28022e-07
-1.6344e-05
3.82439e-07
-1.69416e-05
7.04797e-07
-1.79803e-05
1.3669e-06
-1.97417e-05
2.69191e-06
-2.24847e-05
5.24439e-06
9.9405e-06
-2.58436e-05
-3.71725e-08
4.78357e-08
-1.39119e-07
1.77823e-07
-2.94149e-07
2.92628e-07
-4.89259e-07
3.7899e-07
-7.12493e-07
4.38192e-07
-9.54266e-07
4.75944e-07
-1.20753e-06
4.98428e-07
-1.46744e-06
5.10834e-07
-1.73091e-06
5.17026e-07
-1.99604e-06
5.19648e-07
-2.26182e-06
5.20378e-07
-2.52768e-06
5.20195e-07
-2.79336e-06
5.19621e-07
-3.05875e-06
5.18905e-07
-3.32379e-06
5.18151e-07
-3.58846e-06
5.17391e-07
-3.85276e-06
5.16627e-07
-4.11666e-06
5.15851e-07
-4.38014e-06
5.15055e-07
-4.6432e-06
5.14229e-07
-4.90581e-06
5.13367e-07
-5.16795e-06
5.12463e-07
-5.42959e-06
5.11513e-07
-5.69071e-06
5.10515e-07
-5.95128e-06
5.09468e-07
-6.21127e-06
5.08367e-07
-6.47066e-06
5.07213e-07
-6.72942e-06
5.06002e-07
-6.98751e-06
5.04732e-07
-7.24492e-06
5.03403e-07
-7.50159e-06
5.02013e-07
-7.75751e-06
5.00562e-07
-8.01264e-06
4.99048e-07
-8.26695e-06
4.97469e-07
-8.5204e-06
4.95823e-07
-8.77296e-06
4.9411e-07
-9.0246e-06
4.92328e-07
-9.27527e-06
4.90476e-07
-9.52495e-06
4.88552e-07
-9.77359e-06
4.86555e-07
-1.00212e-05
4.84484e-07
-1.02676e-05
4.82337e-07
-1.05129e-05
4.80113e-07
-1.07571e-05
4.77809e-07
-1.09999e-05
4.75425e-07
-1.12416e-05
4.72959e-07
-1.14819e-05
4.70411e-07
-1.17208e-05
4.67778e-07
-1.19584e-05
4.65059e-07
-1.21945e-05
4.62253e-07
-1.24291e-05
4.59358e-07
-1.26622e-05
4.56373e-07
-1.28938e-05
4.53298e-07
-1.31237e-05
4.5013e-07
-1.33519e-05
4.4687e-07
-1.35784e-05
4.43515e-07
-1.38032e-05
4.40064e-07
-1.40261e-05
4.36517e-07
-1.42472e-05
4.32872e-07
-1.44664e-05
4.2913e-07
-1.46837e-05
4.25289e-07
-1.48989e-05
4.21349e-07
-1.51121e-05
4.1731e-07
-1.53232e-05
4.13172e-07
-1.55322e-05
4.08934e-07
-1.57389e-05
4.04597e-07
-1.59434e-05
4.00161e-07
-1.61457e-05
3.95628e-07
-1.63456e-05
3.90997e-07
-1.65431e-05
3.8627e-07
-1.67382e-05
3.81449e-07
-1.69308e-05
3.76535e-07
-1.71209e-05
3.71531e-07
-1.73085e-05
3.6644e-07
-1.74934e-05
3.61265e-07
-1.76758e-05
3.56009e-07
-1.78555e-05
3.50677e-07
-1.80325e-05
3.45275e-07
-1.82068e-05
3.39808e-07
-1.83783e-05
3.34282e-07
-1.85471e-05
3.28705e-07
-1.87131e-05
3.23086e-07
-1.88763e-05
3.17433e-07
-1.90367e-05
3.11759e-07
-1.91944e-05
3.06075e-07
-1.93493e-05
3.00394e-07
-1.95014e-05
2.94733e-07
-1.96508e-05
2.8911e-07
-1.97975e-05
2.83544e-07
-1.99416e-05
2.78058e-07
-2.00832e-05
2.72676e-07
-2.02223e-05
2.67427e-07
-2.03591e-05
2.62342e-07
-2.04937e-05
2.57458e-07
-2.06261e-05
2.52817e-07
-2.07568e-05
2.48462e-07
-2.08857e-05
2.44445e-07
-2.10133e-05
2.40823e-07
-2.11398e-05
2.37659e-07
-2.12655e-05
2.35023e-07
-2.13909e-05
2.3299e-07
-2.15165e-05
2.31643e-07
-2.16429e-05
2.31078e-07
-2.17707e-05
2.31408e-07
-2.1901e-05
2.32785e-07
-2.20347e-05
2.35446e-07
-2.21735e-05
2.3982e-07
-2.23197e-05
2.46739e-07
-2.24768e-05
2.57839e-07
-2.26506e-05
2.7631e-07
-2.28508e-05
3.08234e-07
-2.30935e-05
3.64948e-07
-2.34052e-05
4.67134e-07
-2.3829e-05
6.51804e-07
-2.44305e-05
9.83997e-07
-2.53008e-05
1.57507e-06
-2.65399e-05
2.60601e-06
-2.81915e-05
4.34348e-06
-3.00722e-05
7.12508e-06
1.12231e-05
-3.13548e-05
-5.3059e-08
1.00894e-07
-1.87573e-07
3.12336e-07
-3.84308e-07
4.89363e-07
-6.26546e-07
6.21227e-07
-9.00495e-07
7.12141e-07
-1.19553e-06
7.70975e-07
-1.50388e-06
8.06778e-07
-1.82017e-06
8.27125e-07
-2.14088e-06
8.37735e-07
-2.46383e-06
8.42598e-07
-2.78775e-06
8.44298e-07
-3.11194e-06
8.44386e-07
-3.43603e-06
8.43717e-07
-3.75985e-06
8.42721e-07
-4.08329e-06
8.41594e-07
-4.40631e-06
8.40409e-07
-4.72887e-06
8.39187e-07
-5.05094e-06
8.37924e-07
-5.3725e-06
8.36613e-07
-5.69351e-06
8.35245e-07
-6.01396e-06
8.33812e-07
-6.3338e-06
8.32307e-07
-6.65301e-06
8.30724e-07
-6.97155e-06
8.2906e-07
-7.2894e-06
8.2731e-07
-7.6065e-06
8.25473e-07
-7.92283e-06
8.23545e-07
-8.23836e-06
8.21525e-07
-8.55304e-06
8.19409e-07
-8.86683e-06
8.17196e-07
-9.1797e-06
8.14882e-07
-9.4916e-06
8.12467e-07
-9.8025e-06
8.09948e-07
-1.01124e-05
8.07324e-07
-1.04211e-05
8.04592e-07
-1.07288e-05
8.01749e-07
-1.10352e-05
7.98795e-07
-1.13405e-05
7.95726e-07
-1.16445e-05
7.92541e-07
-1.19472e-05
7.89237e-07
-1.22485e-05
7.85813e-07
-1.25484e-05
7.82267e-07
-1.28469e-05
7.78595e-07
-1.31439e-05
7.74796e-07
-1.34393e-05
7.70867e-07
-1.37332e-05
7.66807e-07
-1.40254e-05
7.62614e-07
-1.43159e-05
7.58285e-07
-1.46047e-05
7.53819e-07
-1.48916e-05
7.49214e-07
-1.51767e-05
7.44466e-07
-1.54599e-05
7.39576e-07
-1.57412e-05
7.3454e-07
-1.60204e-05
7.29357e-07
-1.62975e-05
7.24027e-07
-1.65726e-05
7.18546e-07
-1.68454e-05
7.12914e-07
-1.7116e-05
7.07129e-07
-1.73844e-05
7.0119e-07
-1.76503e-05
6.95097e-07
-1.79139e-05
6.88848e-07
-1.8175e-05
6.82443e-07
-1.84336e-05
6.75883e-07
-1.86895e-05
6.69167e-07
-1.89429e-05
6.62296e-07
-1.91936e-05
6.55269e-07
-1.94415e-05
6.48089e-07
-1.96866e-05
6.40756e-07
-1.99289e-05
6.33274e-07
-2.01683e-05
6.25643e-07
-2.04047e-05
6.17867e-07
-2.06381e-05
6.09949e-07
-2.08685e-05
6.01894e-07
-2.10958e-05
5.93707e-07
-2.13199e-05
5.85394e-07
-2.15408e-05
5.76962e-07
-2.17586e-05
5.68419e-07
-2.19731e-05
5.59773e-07
-2.21843e-05
5.51034e-07
-2.23922e-05
5.42216e-07
-2.25969e-05
5.3333e-07
-2.27982e-05
5.24391e-07
-2.29962e-05
5.15417e-07
-2.31908e-05
5.06428e-07
-2.33822e-05
4.97445e-07
-2.35703e-05
4.88492e-07
-2.37552e-05
4.79599e-07
-2.39368e-05
4.70795e-07
-2.41154e-05
4.62118e-07
-2.4291e-05
4.53608e-07
-2.44636e-05
4.45312e-07
-2.46335e-05
4.37281e-07
-2.48007e-05
4.29575e-07
-2.49655e-05
4.22262e-07
-2.51281e-05
4.1542e-07
-2.52888e-05
4.09139e-07
-2.54478e-05
4.03521e-07
-2.56057e-05
3.98682e-07
-2.57628e-05
3.94759e-07
-2.59197e-05
3.91908e-07
-2.6077e-05
3.90315e-07
-2.62356e-05
3.90197e-07
-2.63963e-05
3.91824e-07
-2.65604e-05
3.95544e-07
-2.67295e-05
4.01836e-07
-2.69055e-05
4.11413e-07
-2.70911e-05
4.25418e-07
-2.72901e-05
4.45779e-07
-2.75081e-05
4.75841e-07
-2.77532e-05
5.21436e-07
-2.80376e-05
5.92645e-07
-2.83793e-05
7.06584e-07
-2.88038e-05
8.9165e-07
-2.93457e-05
1.19369e-06
-3.00459e-05
1.6842e-06
-3.09401e-05
2.46933e-06
-3.20277e-05
3.69355e-06
-3.3209e-05
5.52483e-06
-3.4186e-05
8.10201e-06
1.1388e-05
-3.43509e-05
-6.35491e-08
1.64444e-07
-2.2121e-07
4.69996e-07
-4.48045e-07
7.16198e-07
-7.2406e-07
8.97242e-07
-1.03382e-06
1.0219e-06
-1.3659e-06
1.10306e-06
-1.71214e-06
1.15301e-06
-2.06691e-06
1.1819e-06
-2.42654e-06
1.19736e-06
-2.78871e-06
1.20477e-06
-3.15205e-06
1.20764e-06
-3.51579e-06
1.20813e-06
-3.8795e-06
1.20743e-06
-4.24295e-06
1.20617e-06
-4.60602e-06
1.20466e-06
-4.96863e-06
1.20302e-06
-5.33072e-06
1.20128e-06
-5.69226e-06
1.19947e-06
-6.05321e-06
1.19756e-06
-6.41353e-06
1.19557e-06
-6.77319e-06
1.19347e-06
-7.13214e-06
1.19126e-06
-7.49036e-06
1.18894e-06
-7.84779e-06
1.18649e-06
-8.20439e-06
1.18392e-06
-8.56014e-06
1.18122e-06
-8.91498e-06
1.17839e-06
-9.26887e-06
1.17542e-06
-9.62178e-06
1.17231e-06
-9.97365e-06
1.16906e-06
-1.03244e-05
1.16567e-06
-1.06741e-05
1.16213e-06
-1.10226e-05
1.15844e-06
-1.13699e-05
1.15459e-06
-1.17159e-05
1.1506e-06
-1.20606e-05
1.14644e-06
-1.24039e-05
1.14212e-06
-1.27458e-05
1.13764e-06
-1.30862e-05
1.13299e-06
-1.34252e-05
1.12817e-06
-1.37625e-05
1.12317e-06
-1.40983e-05
1.118e-06
-1.44323e-05
1.11266e-06
-1.47647e-05
1.10713e-06
-1.50952e-05
1.10141e-06
-1.54239e-05
1.09551e-06
-1.57507e-05
1.08942e-06
-1.60756e-05
1.08314e-06
-1.63984e-05
1.07666e-06
-1.67192e-05
1.06999e-06
-1.70378e-05
1.06311e-06
-1.73543e-05
1.05603e-06
-1.76685e-05
1.04875e-06
-1.79804e-05
1.04125e-06
-1.82899e-05
1.03355e-06
-1.8597e-05
1.02564e-06
-1.89016e-05
1.01751e-06
-1.92037e-05
1.00917e-06
-1.95031e-05
1.00062e-06
-1.97998e-05
9.91842e-07
-2.00938e-05
9.82851e-07
-2.0385e-05
9.73642e-07
-2.06734e-05
9.64214e-07
-2.09588e-05
9.5457e-07
-2.12412e-05
9.44709e-07
-2.15205e-05
9.34633e-07
-2.17968e-05
9.24343e-07
-2.20699e-05
9.13843e-07
-2.23398e-05
9.03134e-07
-2.26063e-05
8.92222e-07
-2.28696e-05
8.81111e-07
-2.31294e-05
8.69807e-07
-2.33859e-05
8.58316e-07
-2.36388e-05
8.46646e-07
-2.38882e-05
8.34807e-07
-2.41341e-05
8.22808e-07
-2.43763e-05
8.10662e-07
-2.46149e-05
7.98383e-07
-2.48499e-05
7.85985e-07
-2.50811e-05
7.73487e-07
-2.53087e-05
7.6091e-07
-2.55326e-05
7.48275e-07
-2.57528e-05
7.35609e-07
-2.59693e-05
7.2294e-07
-2.61822e-05
7.10304e-07
-2.63914e-05
6.97736e-07
-2.65971e-05
6.85281e-07
-2.67993e-05
6.72986e-07
-2.69981e-05
6.60906e-07
-2.71936e-05
6.49104e-07
-2.73859e-05
6.37652e-07
-2.75753e-05
6.26631e-07
-2.77618e-05
6.16135e-07
-2.79458e-05
6.06271e-07
-2.81276e-05
5.97164e-07
-2.83074e-05
5.88957e-07
-2.84857e-05
5.81817e-07
-2.86629e-05
5.75937e-07
-2.88397e-05
5.71549e-07
-2.90167e-05
5.68923e-07
-2.91948e-05
5.68388e-07
-2.9375e-05
5.70347e-07
-2.95584e-05
5.75304e-07
-2.97468e-05
5.83922e-07
-2.99421e-05
5.97108e-07
-3.01468e-05
6.16171e-07
-3.03645e-05
6.43093e-07
-3.05997e-05
6.8099e-07
-3.08588e-05
7.34867e-07
-3.11501e-05
8.12822e-07
-3.14853e-05
9.27838e-07
-3.18791e-05
1.10035e-06
-3.23491e-05
1.36162e-06
-3.29131e-05
1.75775e-06
-3.35823e-05
2.35339e-06
-3.43456e-05
3.2326e-06
-3.51434e-05
4.49135e-06
-3.58316e-05
6.21308e-06
-3.6148e-05
8.41833e-06
1.09693e-05
-3.57292e-05
-6.99419e-08
2.34386e-07
-2.42963e-07
6.43017e-07
-4.90345e-07
9.6358e-07
-7.89573e-07
1.19647e-06
-1.12382e-06
1.35615e-06
-1.48098e-06
1.46022e-06
-1.85259e-06
1.52463e-06
-2.23293e-06
1.56224e-06
-2.61825e-06
1.58268e-06
-3.00621e-06
1.59273e-06
-3.39543e-06
1.59686e-06
-3.78511e-06
1.5978e-06
-4.17479e-06
1.59711e-06
-4.56422e-06
1.59561e-06
-4.95326e-06
1.5937e-06
-5.34182e-06
1.59157e-06
-5.72983e-06
1.58929e-06
-6.11724e-06
1.58688e-06
-6.504e-06
1.58433e-06
-6.89007e-06
1.58164e-06
-7.27541e-06
1.57881e-06
-7.65997e-06
1.57582e-06
-8.04371e-06
1.57267e-06
-8.42658e-06
1.56936e-06
-8.80854e-06
1.56588e-06
-9.18954e-06
1.56222e-06
-9.56954e-06
1.55839e-06
-9.94849e-06
1.55437e-06
-1.03263e-05
1.55016e-06
-1.0703e-05
1.54576e-06
-1.10785e-05
1.54117e-06
-1.14528e-05
1.53639e-06
-1.18258e-05
1.5314e-06
-1.21974e-05
1.52621e-06
-1.25676e-05
1.52081e-06
-1.29364e-05
1.5152e-06
-1.33036e-05
1.50937e-06
-1.36693e-05
1.50333e-06
-1.40334e-05
1.49706e-06
-1.43958e-05
1.49057e-06
-1.47565e-05
1.48385e-06
-1.51154e-05
1.4769e-06
-1.54724e-05
1.46971e-06
-1.58276e-05
1.46228e-06
-1.61808e-05
1.45461e-06
-1.65319e-05
1.44668e-06
-1.6881e-05
1.43851e-06
-1.7228e-05
1.43009e-06
-1.75727e-05
1.42141e-06
-1.79152e-05
1.41246e-06
-1.82553e-05
1.40326e-06
-1.85931e-05
1.39379e-06
-1.89284e-05
1.38404e-06
-1.92612e-05
1.37403e-06
-1.95913e-05
1.36374e-06
-1.99189e-05
1.35318e-06
-2.02437e-05
1.34233e-06
-2.05657e-05
1.33121e-06
-2.08849e-05
1.3198e-06
-2.12012e-05
1.30811e-06
-2.15145e-05
1.29614e-06
-2.18247e-05
1.28388e-06
-2.21318e-05
1.27134e-06
-2.24358e-05
1.25852e-06
-2.27365e-05
1.24542e-06
-2.30339e-05
1.23204e-06
-2.3328e-05
1.21838e-06
-2.36186e-05
1.20445e-06
-2.39057e-05
1.19026e-06
-2.41893e-05
1.1758e-06
-2.44692e-05
1.16109e-06
-2.47456e-05
1.14613e-06
-2.50182e-05
1.13093e-06
-2.5287e-05
1.11551e-06
-2.55521e-05
1.09987e-06
-2.58133e-05
1.08403e-06
-2.60707e-05
1.06801e-06
-2.63241e-05
1.05183e-06
-2.65736e-05
1.0355e-06
-2.68192e-05
1.01905e-06
-2.70608e-05
1.00252e-06
-2.72985e-05
9.8592e-07
-2.75321e-05
9.69301e-07
-2.77619e-05
9.52699e-07
-2.79878e-05
9.3616e-07
-2.82098e-05
9.19734e-07
-2.8428e-05
9.03483e-07
-2.86424e-05
8.87472e-07
-2.88533e-05
8.71778e-07
-2.90607e-05
8.56487e-07
-2.92648e-05
8.41699e-07
-2.94656e-05
8.27527e-07
-2.96636e-05
8.14104e-07
-2.98589e-05
8.0158e-07
-3.00519e-05
7.9013e-07
-3.02429e-05
7.79959e-07
-3.04324e-05
7.71306e-07
-3.06209e-05
7.64452e-07
-3.08091e-05
7.59733e-07
-3.09977e-05
7.5755e-07
-3.11877e-05
7.58394e-07
-3.13802e-05
7.62873e-07
-3.15767e-05
7.71757e-07
-3.17788e-05
7.86048e-07
-3.19888e-05
8.07106e-07
-3.22095e-05
8.36833e-07
-3.24444e-05
8.77989e-07
-3.26981e-05
9.3469e-07
-3.29764e-05
1.01317e-06
-3.32864e-05
1.12289e-06
-3.36367e-05
1.2781e-06
-3.40361e-05
1.49974e-06
-3.44921e-05
1.81761e-06
-3.50064e-05
2.2721e-06
-3.55674e-05
2.91437e-06
-3.61376e-05
3.80273e-06
-3.66376e-05
4.99142e-06
-3.69327e-05
6.5082e-06
-3.68333e-05
8.31892e-06
1.02777e-05
-3.61417e-05
-7.35843e-08
3.0797e-07
-2.56209e-07
8.25639e-07
-5.16911e-07
1.22428e-06
-8.31425e-07
1.51098e-06
-1.18184e-06
1.70656e-06
-1.55548e-06
1.83386e-06
-1.94363e-06
1.91278e-06
-2.34048e-06
1.95909e-06
-2.74228e-06
1.98448e-06
-3.14672e-06
1.99717e-06
-3.5524e-06
2.00255e-06
-3.95855e-06
2.00395e-06
-4.3647e-06
2.00326e-06
-4.77061e-06
2.00151e-06
-5.17611e-06
1.99921e-06
-5.58112e-06
1.99658e-06
-5.98555e-06
1.99373e-06
-6.38935e-06
1.99068e-06
-6.79247e-06
1.98745e-06
-7.19486e-06
1.98403e-06
-7.59646e-06
1.98041e-06
-7.99724e-06
1.9766e-06
-8.39714e-06
1.97257e-06
-8.79611e-06
1.96833e-06
-9.1941e-06
1.96388e-06
-9.59108e-06
1.9592e-06
-9.98698e-06
1.95429e-06
-1.03818e-05
1.94914e-06
-1.07754e-05
1.94376e-06
-1.11677e-05
1.93814e-06
-1.15588e-05
1.93227e-06
-1.19486e-05
1.92616e-06
-1.2337e-05
1.91978e-06
-1.27239e-05
1.91315e-06
-1.31094e-05
1.90626e-06
-1.34933e-05
1.8991e-06
-1.38756e-05
1.89167e-06
-1.42562e-05
1.88396e-06
-1.46351e-05
1.87598e-06
-1.50123e-05
1.86771e-06
-1.53876e-05
1.85915e-06
-1.5761e-05
1.8503e-06
-1.61324e-05
1.84115e-06
-1.65018e-05
1.8317e-06
-1.68692e-05
1.82194e-06
-1.72344e-05
1.81188e-06
-1.75973e-05
1.8015e-06
-1.79581e-05
1.7908e-06
-1.83164e-05
1.77978e-06
-1.86724e-05
1.76844e-06
-1.90259e-05
1.75677e-06
-1.93769e-05
1.74476e-06
-1.97253e-05
1.73242e-06
-2.0071e-05
1.71973e-06
-2.04139e-05
1.70671e-06
-2.07541e-05
1.69334e-06
-2.10914e-05
1.67963e-06
-2.14258e-05
1.66556e-06
-2.17571e-05
1.65115e-06
-2.20854e-05
1.63638e-06
-2.24105e-05
1.62127e-06
-2.27324e-05
1.6058e-06
-2.30511e-05
1.58998e-06
-2.33663e-05
1.57381e-06
-2.36782e-05
1.5573e-06
-2.39866e-05
1.54044e-06
-2.42915e-05
1.52324e-06
-2.45927e-05
1.50571e-06
-2.48903e-05
1.48784e-06
-2.51842e-05
1.46966e-06
-2.54742e-05
1.45116e-06
-2.57605e-05
1.43236e-06
-2.60428e-05
1.41327e-06
-2.63212e-05
1.39391e-06
-2.65956e-05
1.37429e-06
-2.6866e-05
1.35442e-06
-2.71324e-05
1.33434e-06
-2.73946e-05
1.31406e-06
-2.76527e-05
1.29361e-06
-2.79067e-05
1.27303e-06
-2.81565e-05
1.25234e-06
-2.84022e-05
1.2316e-06
-2.86437e-05
1.21084e-06
-2.88812e-05
1.19012e-06
-2.91145e-05
1.16949e-06
-2.93438e-05
1.14903e-06
-2.95691e-05
1.1288e-06
-2.97905e-05
1.1089e-06
-3.00082e-05
1.08942e-06
-3.02222e-05
1.07047e-06
-3.04326e-05
1.05218e-06
-3.06398e-05
1.03471e-06
-3.08439e-05
1.01821e-06
-3.10452e-05
1.00288e-06
-3.12441e-05
9.88958e-07
-3.14408e-05
9.76703e-07
-3.16359e-05
9.66428e-07
-3.183e-05
9.58506e-07
-3.20236e-05
9.53377e-07
-3.22176e-05
9.51575e-07
-3.2413e-05
9.53751e-07
-3.26108e-05
9.60714e-07
-3.28126e-05
9.73485e-07
-3.30199e-05
9.93386e-07
-3.3235e-05
1.02217e-06
-3.34604e-05
1.06223e-06
-3.36993e-05
1.1169e-06
-3.39555e-05
1.19095e-06
-3.42336e-05
1.2912e-06
-3.45382e-05
1.42751e-06
-3.48739e-05
1.61381e-06
-3.52435e-05
1.86938e-06
-3.56457e-05
2.21981e-06
-3.60707e-05
2.6971e-06
-3.64942e-05
3.33786e-06
-3.68696e-05
4.17809e-06
-3.71208e-05
5.24265e-06
-3.71414e-05
6.52875e-06
-3.6807e-05
7.98453e-06
9.48744e-06
-3.60167e-05
-7.55182e-08
3.83489e-07
-2.63807e-07
1.01393e-06
-5.32715e-07
1.49319e-06
-8.56863e-07
1.83513e-06
-1.21756e-06
2.06726e-06
-1.60169e-06
2.21798e-06
-2.00031e-06
2.3114e-06
-2.40753e-06
2.36631e-06
-2.81961e-06
2.39656e-06
-3.23425e-06
2.41181e-06
-3.6501e-06
2.4184e-06
-4.06638e-06
2.42023e-06
-4.48265e-06
2.41953e-06
-4.89866e-06
2.41753e-06
-5.31427e-06
2.41481e-06
-5.72936e-06
2.41167e-06
-6.14386e-06
2.40823e-06
-6.55771e-06
2.40453e-06
-6.97086e-06
2.4006e-06
-7.38324e-06
2.39641e-06
-7.79482e-06
2.39199e-06
-8.20553e-06
2.38731e-06
-8.61533e-06
2.38237e-06
-9.02416e-06
2.37717e-06
-9.43198e-06
2.3717e-06
-9.83874e-06
2.36595e-06
-1.02444e-05
2.35992e-06
-1.06488e-05
2.35361e-06
-1.10521e-05
2.347e-06
-1.1454e-05
2.3401e-06
-1.18547e-05
2.33291e-06
-1.22539e-05
2.3254e-06
-1.26517e-05
2.31759e-06
-1.3048e-05
2.30946e-06
-1.34428e-05
2.30101e-06
-1.38359e-05
2.29224e-06
-1.42274e-05
2.28314e-06
-1.46171e-05
2.27371e-06
-1.50051e-05
2.26393e-06
-1.53912e-05
2.25381e-06
-1.57754e-05
2.24334e-06
-1.61576e-05
2.23252e-06
-1.65378e-05
2.22134e-06
-1.69159e-05
2.20979e-06
-1.72918e-05
2.19787e-06
-1.76655e-05
2.18558e-06
-1.80369e-05
2.17291e-06
-1.8406e-05
2.15986e-06
-1.87726e-05
2.14642e-06
-1.91368e-05
2.13258e-06
-1.94984e-05
2.11835e-06
-1.98573e-05
2.10372e-06
-2.02136e-05
2.08868e-06
-2.05671e-05
2.07324e-06
-2.09178e-05
2.05738e-06
-2.12655e-05
2.04111e-06
-2.16103e-05
2.02443e-06
-2.19521e-05
2.00732e-06
-2.22908e-05
1.9898e-06
-2.26262e-05
1.97185e-06
-2.29584e-05
1.95349e-06
-2.32873e-05
1.9347e-06
-2.36128e-05
1.91549e-06
-2.39349e-05
1.89586e-06
-2.42534e-05
1.87582e-06
-2.45684e-05
1.85537e-06
-2.48796e-05
1.83451e-06
-2.51872e-05
1.81326e-06
-2.54909e-05
1.79161e-06
-2.57909e-05
1.76958e-06
-2.60869e-05
1.74718e-06
-2.63789e-05
1.72441e-06
-2.6667e-05
1.70131e-06
-2.69509e-05
1.67788e-06
-2.72308e-05
1.65414e-06
-2.75065e-05
1.63012e-06
-2.7778e-05
1.60584e-06
-2.80453e-05
1.58133e-06
-2.83083e-05
1.55663e-06
-2.8567e-05
1.53178e-06
-2.88215e-05
1.50681e-06
-2.90717e-05
1.48178e-06
-2.93176e-05
1.45673e-06
-2.95592e-05
1.43175e-06
-2.97966e-05
1.40689e-06
-3.00298e-05
1.38224e-06
-3.02589e-05
1.35789e-06
-3.04839e-05
1.33394e-06
-3.0705e-05
1.31051e-06
-3.09223e-05
1.28774e-06
-3.11359e-05
1.26579e-06
-3.1346e-05
1.24483e-06
-3.15529e-05
1.22507e-06
-3.17568e-05
1.20675e-06
-3.1958e-05
1.19015e-06
-3.21568e-05
1.17559e-06
-3.23539e-05
1.16346e-06
-3.25496e-05
1.1542e-06
-3.27446e-05
1.14836e-06
-3.29396e-05
1.1466e-06
-3.31355e-05
1.14969e-06
-3.33334e-05
1.15863e-06
-3.35346e-05
1.17465e-06
-3.37405e-05
1.19932e-06
-3.39531e-05
1.23468e-06
-3.41743e-05
1.28344e-06
-3.44066e-05
1.34926e-06
-3.46528e-05
1.43713e-06
-3.49155e-05
1.55391e-06
-3.5197e-05
1.70895e-06
-3.5498e-05
1.91481e-06
-3.58164e-05
2.18785e-06
-3.6145e-05
2.54836e-06
-3.64676e-05
3.01971e-06
-3.67556e-05
3.62588e-06
-3.69639e-05
4.38636e-06
-3.70292e-05
5.30796e-06
-3.68744e-05
6.37395e-06
-3.64225e-05
7.53264e-06
8.69005e-06
-3.56251e-05
-7.64565e-08
4.59946e-07
-2.67891e-07
1.20536e-06
-5.41605e-07
1.7669e-06
-8.71568e-07
2.16509e-06
-1.23858e-06
2.43427e-06
-1.62917e-06
2.60857e-06
-2.03424e-06
2.71647e-06
-2.44782e-06
2.77989e-06
-2.86615e-06
2.81489e-06
-3.28696e-06
2.83262e-06
-3.70891e-06
2.84035e-06
-4.13125e-06
2.84257e-06
-4.55357e-06
2.84184e-06
-4.9756e-06
2.83956e-06
-5.39722e-06
2.83643e-06
-5.81831e-06
2.83277e-06
-6.23881e-06
2.82873e-06
-6.65864e-06
2.82437e-06
-7.07775e-06
2.81971e-06
-7.49609e-06
2.81475e-06
-7.9136e-06
2.8095e-06
-8.33023e-06
2.80394e-06
-8.74592e-06
2.79806e-06
-9.16063e-06
2.79188e-06
-9.5743e-06
2.78536e-06
-9.98687e-06
2.77852e-06
-1.03983e-05
2.77135e-06
-1.08085e-05
2.76384e-06
-1.12175e-05
2.75598e-06
-1.16252e-05
2.74778e-06
-1.20315e-05
2.73922e-06
-1.24364e-05
2.73029e-06
-1.28398e-05
2.721e-06
-1.32417e-05
2.71134e-06
-1.3642e-05
2.70131e-06
-1.40406e-05
2.69088e-06
-1.44376e-05
2.68007e-06
-1.48327e-05
2.66887e-06
-1.52261e-05
2.65726e-06
-1.56175e-05
2.64525e-06
-1.6007e-05
2.63283e-06
-1.63945e-05
2.61999e-06
-1.67799e-05
2.60673e-06
-1.71631e-05
2.59304e-06
-1.75441e-05
2.57891e-06
-1.79229e-05
2.56435e-06
-1.82993e-05
2.54934e-06
-1.86734e-05
2.53388e-06
-1.90449e-05
2.51796e-06
-1.94139e-05
2.50158e-06
-1.97803e-05
2.48474e-06
-2.0144e-05
2.46743e-06
-2.0505e-05
2.44964e-06
-2.08631e-05
2.43138e-06
-2.12183e-05
2.41263e-06
-2.15706e-05
2.3934e-06
-2.19199e-05
2.37368e-06
-2.2266e-05
2.35347e-06
-2.2609e-05
2.33277e-06
-2.29487e-05
2.31158e-06
-2.32851e-05
2.2899e-06
-2.36182e-05
2.26772e-06
-2.39477e-05
2.24505e-06
-2.42738e-05
2.2219e-06
-2.45962e-05
2.19826e-06
-2.4915e-05
2.17415e-06
-2.523e-05
2.14956e-06
-2.55413e-05
2.1245e-06
-2.58486e-05
2.09899e-06
-2.61521e-05
2.07303e-06
-2.64516e-05
2.04664e-06
-2.6747e-05
2.01983e-06
-2.70383e-05
1.99263e-06
-2.73255e-05
1.96504e-06
-2.76084e-05
1.9371e-06
-2.78871e-05
1.90883e-06
-2.81616e-05
1.88027e-06
-2.84317e-05
1.85144e-06
-2.86974e-05
1.82238e-06
-2.89588e-05
1.79315e-06
-2.92158e-05
1.76379e-06
-2.94683e-05
1.73436e-06
-2.97165e-05
1.70492e-06
-2.99603e-05
1.67555e-06
-3.01998e-05
1.64633e-06
-3.04349e-05
1.61736e-06
-3.06657e-05
1.58874e-06
-3.08924e-05
1.56059e-06
-3.1115e-05
1.53306e-06
-3.13335e-05
1.5063e-06
-3.15482e-05
1.4805e-06
-3.17592e-05
1.45585e-06
-3.19668e-05
1.43261e-06
-3.21711e-05
1.41105e-06
-3.23724e-05
1.39149e-06
-3.25711e-05
1.37431e-06
-3.27676e-05
1.35995e-06
-3.29623e-05
1.34894e-06
-3.31559e-05
1.34189e-06
-3.33488e-05
1.33956e-06
-3.3542e-05
1.34285e-06
-3.37362e-05
1.35288e-06
-3.39326e-05
1.37101e-06
-3.41323e-05
1.39899e-06
-3.43366e-05
1.43902e-06
-3.45471e-05
1.49394e-06
-3.47653e-05
1.56746e-06
-3.49926e-05
1.66446e-06
-3.52301e-05
1.79134e-06
-3.54775e-05
1.95642e-06
-3.5733e-05
2.1703e-06
-3.59911e-05
2.44597e-06
-3.62413e-05
2.7985e-06
-3.64653e-05
3.24378e-06
-3.66356e-05
3.79609e-06
-3.67131e-05
4.46391e-06
-3.66493e-05
5.24419e-06
-3.63912e-05
6.11578e-06
-3.58925e-05
7.03401e-06
7.92963e-06
-3.51321e-05
-7.68568e-08
5.36801e-07
-2.69933e-07
1.39844e-06
-5.46331e-07
2.0433e-06
-8.79676e-07
2.49844e-06
-1.25044e-06
2.80504e-06
-1.64493e-06
3.00306e-06
-2.05389e-06
3.12543e-06
-2.4713e-06
3.1973e-06
-2.89338e-06
3.23697e-06
-3.31786e-06
3.2571e-06
-3.74343e-06
3.26592e-06
-4.16935e-06
3.26849e-06
-4.5952e-06
3.2677e-06
-5.02077e-06
3.26513e-06
-5.4459e-06
3.26156e-06
-5.8705e-06
3.25737e-06
-6.29449e-06
3.25272e-06
-6.71782e-06
3.2477e-06
-7.14042e-06
3.24231e-06
-7.56224e-06
3.23657e-06
-7.98322e-06
3.23048e-06
-8.40331e-06
3.22403e-06
-8.82246e-06
3.21721e-06
-9.2406e-06
3.21002e-06
-9.6577e-06
3.20246e-06
-1.00737e-05
3.19452e-06
-1.04885e-05
3.18619e-06
-1.09021e-05
3.17746e-06
-1.13145e-05
3.16834e-06
-1.17255e-05
3.15881e-06
-1.21352e-05
3.14886e-06
-1.25434e-05
3.13851e-06
-1.29501e-05
3.12772e-06
-1.33553e-05
3.11651e-06
-1.37588e-05
3.10486e-06
-1.41607e-05
3.09277e-06
-1.45609e-05
3.08023e-06
-1.49592e-05
3.06724e-06
-1.53558e-05
3.05378e-06
-1.57504e-05
3.03986e-06
-1.6143e-05
3.02546e-06
-1.65336e-05
3.01058e-06
-1.69221e-05
2.99521e-06
-1.73084e-05
2.97935e-06
-1.76924e-05
2.96299e-06
-1.80742e-05
2.94612e-06
-1.84536e-05
2.92875e-06
-1.88306e-05
2.91085e-06
-1.92051e-05
2.89243e-06
-1.9577e-05
2.87348e-06
-1.99462e-05
2.85399e-06
-2.03128e-05
2.83397e-06
-2.06765e-05
2.8134e-06
-2.10374e-05
2.79228e-06
-2.13954e-05
2.77061e-06
-2.17504e-05
2.74838e-06
-2.21023e-05
2.7256e-06
-2.24511e-05
2.70225e-06
-2.27967e-05
2.67834e-06
-2.31389e-05
2.65386e-06
-2.34779e-05
2.62882e-06
-2.38134e-05
2.60322e-06
-2.41454e-05
2.57705e-06
-2.44738e-05
2.55033e-06
-2.47986e-05
2.52305e-06
-2.51196e-05
2.49522e-06
-2.54369e-05
2.46685e-06
-2.57504e-05
2.43794e-06
-2.60599e-05
2.40852e-06
-2.63655e-05
2.37858e-06
-2.6667e-05
2.34815e-06
-2.69644e-05
2.31724e-06
-2.72576e-05
2.28587e-06
-2.75466e-05
2.25407e-06
-2.78314e-05
2.22186e-06
-2.81118e-05
2.18928e-06
-2.83879e-05
2.15635e-06
-2.86596e-05
2.12312e-06
-2.89269e-05
2.08963e-06
-2.91897e-05
2.05594e-06
-2.9448e-05
2.0221e-06
-2.97018e-05
1.98817e-06
-2.99511e-05
1.95423e-06
-3.01959e-05
1.92037e-06
-3.04362e-05
1.88667e-06
-3.06721e-05
1.85325e-06
-3.09036e-05
1.82022e-06
-3.11307e-05
1.78772e-06
-3.13536e-05
1.75591e-06
-3.15723e-05
1.72497e-06
-3.17869e-05
1.6951e-06
-3.19976e-05
1.66653e-06
-3.22045e-05
1.63954e-06
-3.24079e-05
1.61443e-06
-3.26079e-05
1.59157e-06
-3.2805e-05
1.57136e-06
-3.29994e-05
1.55431e-06
-3.31914e-05
1.54099e-06
-3.33816e-05
1.53208e-06
-3.35705e-05
1.5284e-06
-3.37585e-05
1.53093e-06
-3.39465e-05