/*--------------------------------*- C++ -*----------------------------------*\
  =========                 |
  \\      /  F ield         | OpenFOAM: The Open Source CFD Toolbox
   \\    /   O peration     | Website:  https://openfoam.org
    \\  /    A nd           | Version:  8
     \\/     M anipulation  |
\*---------------------------------------------------------------------------*/
FoamFile
{
    version     2.0;
    format      ascii;
    class       surfaceScalarField;
    location    "6.5";
    object      phi;
}
// * * * * * * * * * * * * * * * * * * * * * * * * * * * * * * * * * * * * * //

dimensions      [0 3 -1 0 0 0 0];

internalField   nonuniform List<scalar> 
880
(
-3.48658e-06
3.48659e-06
-6.92982e-06
3.44324e-06
-1.01972e-05
3.26737e-06
-1.32094e-05
3.01218e-06
-1.58972e-05
2.68785e-06
-1.82038e-05
2.30663e-06
-2.00867e-05
1.88286e-06
-2.15169e-05
1.43021e-06
-2.24946e-05
9.77683e-07
-2.30058e-05
5.11203e-07
-2.32878e-05
2.81982e-07
-3.28924e-07
-2.29589e-05
-3.61961e-06
7.1062e-06
-7.19254e-06
7.01617e-06
-1.05803e-05
6.65511e-06
-1.36998e-05
6.13166e-06
-1.6479e-05
5.46712e-06
-1.88597e-05
4.68728e-06
-2.08008e-05
3.82401e-06
-2.22788e-05
2.90813e-06
-2.3289e-05
1.98793e-06
-2.38352e-05
1.05735e-06
-2.40834e-05
5.30241e-07
-6.35992e-07
-2.37764e-05
-3.80047e-06
1.09067e-05
-7.54878e-06
1.07645e-05
-1.10969e-05
1.02032e-05
-1.43557e-05
9.39049e-06
-1.72481e-05
8.3595e-06
-1.97094e-05
7.14859e-06
-2.16845e-05
5.79907e-06
-2.31276e-05
4.35127e-06
-2.39977e-05
2.85798e-06
-2.42822e-05
1.34188e-06
-2.38128e-05
6.08279e-08
-1.61831e-06
-2.28305e-05
-4.08125e-06
1.49879e-05
-8.1014e-06
1.47846e-05
-1.18979e-05
1.39997e-05
-1.53732e-05
1.28658e-05
-1.84451e-05
1.14314e-05
-2.1047e-05
9.75051e-06
-2.31274e-05
7.87943e-06
-2.465e-05
5.87388e-06
-2.5586e-05
3.79401e-06
-2.58994e-05
1.65527e-06
-2.54177e-05
-4.20843e-07
-2.60475e-06
-2.44313e-05
-4.47432e-06
1.94622e-05
-8.8736e-06
1.91839e-05
-1.30147e-05
1.81408e-05
-1.67882e-05
1.66394e-05
-2.01058e-05
1.4749e-05
-2.28975e-05
1.25422e-05
-2.51098e-05
1.00918e-05
-2.67006e-05
7.46462e-06
-2.76299e-05
4.72332e-06
-2.7889e-05
1.91439e-06
-2.7432e-05
-8.77808e-07
-3.74811e-06
-2.62887e-05
-4.99761e-06
2.44598e-05
-9.89837e-06
2.40847e-05
-1.44918e-05
2.27343e-05
-1.86528e-05
2.08003e-05
-2.22872e-05
1.83834e-05
-2.53252e-05
1.55801e-05
-2.77183e-05
1.24849e-05
-2.94336e-05
9.17998e-06
-3.04474e-05
5.73706e-06
-3.0744e-05
2.21098e-06
-3.02762e-05
-1.3456e-06
-4.92242e-06
-2.91019e-05
-5.67729e-06
3.01371e-05
-1.12226e-05
2.963e-05
-1.63909e-05
2.79026e-05
-2.10347e-05
2.54441e-05
-2.50574e-05
2.24062e-05
-2.83919e-05
1.89146e-05
-3.09992e-05
1.50922e-05
-3.28574e-05
1.10382e-05
-3.39533e-05
6.83298e-06
-3.42794e-05
2.53706e-06
-3.38265e-05
-1.79845e-06
-6.14486e-06
-3.26041e-05
-6.55236e-06
3.66895e-05
-1.2913e-05
3.59906e-05
-1.87978e-05
3.37873e-05
-2.40258e-05
3.06721e-05
-2.85062e-05
2.68866e-05
-3.218e-05
2.25884e-05
-3.50268e-05
1.7939e-05
-3.70438e-05
1.30551e-05
-3.82354e-05
8.02463e-06
-3.86068e-05
2.90845e-06
-3.8156e-05
-2.24928e-06
-7.4137e-06
-3.68871e-05
-7.68077e-06
4.43703e-05
-1.50653e-05
4.33752e-05
-2.18332e-05
4.05552e-05
-2.77492e-05
3.6588e-05
-3.27485e-05
3.1886e-05
-3.67885e-05
2.66283e-05
-3.9882e-05
2.10325e-05
-4.20557e-05
1.52289e-05
-4.33394e-05
9.3083e-06
-4.37547e-05
3.32376e-06
-4.33082e-05
-2.6958e-06
-8.72727e-06
-4.19946e-05
-9.16058e-06
5.35308e-05
-1.78246e-05
5.20392e-05
-2.56732e-05
4.84038e-05
-3.23729e-05
4.32877e-05
-3.79331e-05
3.74462e-05
-4.23378e-05
3.1033e-05
-4.56566e-05
2.43513e-05
-4.79613e-05
1.75336e-05
-4.93176e-05
1.06646e-05
-4.97697e-05
3.7758e-06
-4.93338e-05
-3.13167e-06
-1.00674e-05
-4.79937e-05
-1.11139e-05
6.46447e-05
-2.13792e-05
6.23045e-05
-3.05541e-05
5.75787e-05
-3.8117e-05
5.08506e-05
-4.42483e-05
4.35775e-05
-4.89692e-05
3.57538e-05
-5.24488e-05
2.78309e-05
-5.48241e-05
1.99089e-05
-5.62103e-05
1.20509e-05
-5.66835e-05
4.24898e-06
-5.6272e-05
-3.54323e-06
-1.13899e-05
-5.49494e-05
-1.39239e-05
7.85686e-05
-2.61085e-05
7.44892e-05
-3.69259e-05
6.83961e-05
-4.53216e-05
5.92463e-05
-5.19482e-05
5.02041e-05
-5.68531e-05
4.06587e-05
-6.03594e-05
3.13372e-05
-6.26881e-05
2.22376e-05
-6.40287e-05
1.33915e-05
-6.44978e-05
4.71802e-06
-6.4135e-05
-3.90606e-06
-1.26215e-05
-6.29033e-05
-1.73496e-05
9.59182e-05
-3.19568e-05
8.90963e-05
-4.48328e-05
8.12721e-05
-5.41435e-05
6.8557e-05
-6.12587e-05
5.73194e-05
-6.6148e-05
4.5548e-05
-6.94538e-05
3.4643e-05
-7.15595e-05
2.43434e-05
-7.27435e-05
1.45755e-05
-7.3169e-05
5.14354e-06
-7.28921e-05
-4.18299e-06
-1.36507e-05
-7.18629e-05
-2.46658e-05
0.000120584
-4.19669e-05
0.000106397
-5.70873e-05
9.63925e-05
-6.61727e-05
7.76425e-05
-7.30074e-05
6.4154e-05
-7.71585e-05
4.96991e-05
-7.98073e-05
3.72918e-05
-8.13995e-05
2.59356e-05
-8.22573e-05
1.54333e-05
-8.25812e-05
5.46743e-06
-8.24438e-05
-4.32041e-06
-1.43077e-05
-8.17868e-05
-3.05217e-05
0.000151106
-5.12112e-05
0.000127087
-6.91036e-05
0.000114285
-7.87814e-05
8.73203e-05
-8.57585e-05
7.11311e-05
-8.92592e-05
5.31998e-05
-9.11358e-05
3.91684e-05
-9.19745e-05
2.67744e-05
-9.23196e-05
1.57783e-05
-9.24701e-05
5.618e-06
-9.25257e-05
-4.26489e-06
-1.44295e-05
-9.24039e-05
-5.51077e-05
0.000206213
-7.73291e-05
0.000149308
-9.62365e-05
0.000133192
-0.000101672
9.27563e-05
-0.000104842
7.43008e-05
-0.000104809
5.31666e-05
-0.000104178
3.85379e-05
-0.000103306
2.59018e-05
-0.000102708
1.51801e-05
-0.00010257
5.48077e-06
-0.00010295
-3.88575e-06
-1.3539e-05
-0.00010384
-6.46793e-05
0.000270893
-9.11846e-05
0.000175814
-0.000112833
0.000154841
-0.000117784
9.77068e-05
-0.000119907
7.64234e-05
-0.000118233
5.14935e-05
-0.00011609
3.6394e-05
-0.000113962
2.37744e-05
-0.000112532
1.37502e-05
-0.000112057
5.00579e-06
-0.000112665
-3.27831e-06
-1.19452e-05
-0.000114259
-0.000163574
0.000434467
-0.000169813
0.000182052
-0.000173016
0.000158045
-0.000161229
8.59196e-05
-0.000148571
6.37658e-05
-0.000138765
4.16869e-05
-0.00013064
2.82688e-05
-0.000125122
1.8257e-05
-0.000121926
1.05544e-05
-0.000120944
4.02385e-06
-0.00012211
-2.11317e-06
-8.46467e-06
-0.00012559
-0.000187949
0.000622416
-0.000190428
0.000184531
-0.000190301
0.000157919
-0.000172904
6.85224e-05
-0.000155944
4.68055e-05
-0.000142771
2.85139e-05
-0.000132088
1.75857e-05
-0.000124815
1.09838e-05
-0.000120449
6.18851e-06
-0.000118825
2.39956e-06
-0.000119872
-1.06621e-06
-4.74813e-06
-0.000123588
0.000622416
0.000806947
0.000964865
0.00103339
0.00108019
0.00110871
0.00112629
0.00113728
0.00114346
0.00114586
0.0011448
0.00114005
-1.73927e-05
6.24293e-06
-1.18091e-05
-1.33144e-05
2.28898e-06
-6.36729e-06
-1.07328e-05
-8.62112e-07
-1.71947e-06
-8.44877e-06
-3.35889e-06
1.07488e-06
-6.30082e-06
-5.25312e-06
3.10517e-06
-4.1843e-06
-6.62941e-06
4.51289e-06
-2.07363e-06
-7.52923e-06
5.41856e-06
-7.85799e-06
5.78436e-06
-1.85567e-05
1.02325e-06
-1.46509e-05
-1.61681e-06
-1.19605e-05
-3.5525e-06
-9.55041e-06
-5.76899e-06
-7.23799e-06
-7.56554e-06
-4.87899e-06
-8.98841e-06
-2.45153e-06
-9.9567e-06
-1.03095e-05
-2.00709e-05
-1.73628e-06
-1.7432e-05
-4.25575e-06
-1.46112e-05
-6.37335e-06
-1.1792e-05
-8.58818e-06
-8.8982e-06
-1.04593e-05
-5.95592e-06
-1.19307e-05
-2.97276e-06
-1.29399e-05
-1.32823e-05
-2.18269e-05
-4.34064e-06
-1.92257e-05
-6.85702e-06
-1.63636e-05
-9.23544e-06
-1.33851e-05
-1.15666e-05
-1.02355e-05
-1.36089e-05
-6.91763e-06
-1.52486e-05
-3.46848e-06
-1.6389e-05
-1.67508e-05
-2.4248e-05
-6.38133e-06
-2.17448e-05
-9.36017e-06
-1.87782e-05
-1.22021e-05
-1.54754e-05
-1.48694e-05
-1.18824e-05
-1.72019e-05
-8.05027e-06
-1.90808e-05
-4.04454e-06
-2.03947e-05
-2.07953e-05
-2.7078e-05
-8.40522e-06
-2.44929e-05
-1.19452e-05
-2.13613e-05
-1.53338e-05
-1.77485e-05
-1.84822e-05
-1.37139e-05
-2.12365e-05
-9.3326e-06
-2.34621e-05
-4.70238e-06
-2.5025e-05
-2.54977e-05
-3.05806e-05
-1.04287e-05
-2.78576e-05
-1.46682e-05
-2.44645e-05
-1.87269e-05
-2.04561e-05
-2.24905e-05
-1.58941e-05
-2.57985e-05
-1.08617e-05
-2.84944e-05
-5.48958e-06
-3.03971e-05
-3.09873e-05
-3.47816e-05
-1.25343e-05
-3.18732e-05
-1.75765e-05
-2.81722e-05
-2.24279e-05
-2.37053e-05
-2.69574e-05
-1.85277e-05
-3.09761e-05
-1.272e-05
-3.43022e-05
-6.45408e-06
-3.6663e-05
-3.74413e-05
-3.97895e-05
-1.47394e-05
-3.66781e-05
-2.06878e-05
-3.26369e-05
-2.64692e-05
-2.76529e-05
-3.19414e-05
-2.1764e-05
-3.68651e-05
-1.50234e-05
-4.10428e-05
-7.66519e-06
-4.40212e-05
-4.51065e-05
-4.57057e-05
-1.70274e-05
-4.24087e-05
-2.39848e-05
-3.8029e-05
-3.08488e-05
-3.24908e-05
-3.74796e-05
-2.58026e-05
-4.35533e-05
-1.79359e-05
-4.89095e-05
-9.23303e-06
-5.2724e-05
-5.43396e-05
-5.26378e-05
-1.9339e-05
-4.92202e-05
-2.74024e-05
-4.45562e-05
-3.55129e-05
-3.84619e-05
-4.35739e-05
-3.09054e-05
-5.11098e-05
-2.1667e-05
-5.81478e-05
-1.12966e-05
-6.30945e-05
-6.56362e-05
-6.06871e-05
-2.15552e-05
-5.72934e-05
-3.07961e-05
-5.24894e-05
-4.03169e-05
-4.59281e-05
-5.01353e-05
-3.75536e-05
-5.94843e-05
-2.66205e-05
-6.90808e-05
-1.4262e-05
-7.5453e-05
-7.98982e-05
-6.99215e-05
-2.34966e-05
-6.67851e-05
-3.39326e-05
-6.20581e-05
-4.50439e-05
-5.50471e-05
-5.71462e-05
-4.58238e-05
-6.87077e-05
-3.27866e-05
-8.2118e-05
-1.79742e-05
-9.02654e-05
-9.78724e-05
-8.04269e-05
-2.48566e-05
-7.80391e-05
-3.63203e-05
-7.4168e-05
-4.8915e-05
-6.75314e-05
-6.37828e-05
-5.86248e-05
-7.76143e-05
-4.32935e-05
-9.74492e-05
-2.56379e-05
-0.000107921
-0.00012351
-9.18156e-05
-2.54449e-05
-9.02308e-05
-3.7905e-05
-8.71276e-05
-5.20182e-05
-8.04745e-05
-7.0436e-05
-7.13092e-05
-8.67796e-05
-5.3273e-05
-0.000115485
-3.25956e-05
-0.000128598
-0.000156106
-0.000105093
-2.41924e-05
-0.000106216
-3.6782e-05
-0.000106935
-5.12992e-05
-0.000104377
-7.29936e-05
-9.97497e-05
-9.14069e-05
-8.07981e-05
-0.000134437
-5.80604e-05
-0.000151336
-0.000214166
-0.000116636
-2.18147e-05
-0.00011916
-3.4258e-05
-0.000121548
-4.89111e-05
-0.000120237
-7.43046e-05
-0.000117146
-9.44985e-05
-9.64572e-05
-0.000155125
-7.26259e-05
-0.000175167
-0.000286792
-0.000131591
-1.58133e-05
-0.000140493
-2.53565e-05
-0.000151784
-3.76202e-05
-0.000166131
-5.99572e-05
-0.000181077
-7.95524e-05
-0.000179873
-0.000156329
-0.000173517
-0.000181524
-0.000460309
-0.000130093
-9.30813e-06
-0.000139849
-1.56012e-05
-0.000151668
-2.5801e-05
-0.000167409
-4.42162e-05
-0.000182423
-6.45382e-05
-0.000182387
-0.000156366
-0.000176183
-0.000187728
-0.000636492
0.00113074
0.00111514
0.00108934
0.00104512
0.000980585
0.00082422
0.000636492
-3.16175e-07
3.16175e-07
-5.73124e-07
2.56949e-07
-7.30821e-07
1.57697e-07
-7.71986e-07
4.1165e-08
-6.96057e-07
-7.59283e-08
-5.21051e-07
-1.75006e-07
-2.76389e-07
-2.44662e-07
-2.76389e-07
-3.61004e-07
6.77179e-07
-6.49647e-07
5.45592e-07
-8.20145e-07
3.28195e-07
-8.4912e-07
7.01403e-08
-7.59435e-07
-1.65613e-07
-5.68207e-07
-3.66235e-07
-3.02014e-07
-5.10856e-07
-5.78403e-07
-5.13146e-07
1.19032e-06
-9.02138e-07
9.34585e-07
-1.12131e-06
5.4737e-07
-1.16855e-06
1.17372e-07
-1.03576e-06
-2.98404e-07
-7.63229e-07
-6.38762e-07
-4.00539e-07
-8.73545e-07
-9.78942e-07
-6.59661e-07
1.84998e-06
-1.14513e-06
1.42005e-06
-1.39508e-06
7.97326e-07
-1.39363e-06
1.15923e-07
-1.21853e-06
-4.73506e-07
-8.99399e-07
-9.57892e-07
-4.74529e-07
-1.29841e-06
-1.45347e-06
-1.17728e-06
3.02726e-06
-1.93116e-06
2.17393e-06
-2.25092e-06
1.11708e-06
-2.23786e-06
1.02863e-07
-1.90765e-06
-8.03716e-07
-1.3676e-06
-1.49794e-06
-7.0647e-07
-1.95954e-06
-2.15994e-06
-1.5073e-06
4.53456e-06
-2.45068e-06
3.11731e-06
-2.80339e-06
1.46979e-06
-2.67395e-06
-2.65791e-08
-2.26391e-06
-1.21375e-06
-1.63543e-06
-2.12643e-06
-8.51607e-07
-2.74336e-06
-3.01155e-06
-3.28312e-06
7.81768e-06
-4.7864e-06
4.6206e-06
-4.92685e-06
1.61024e-06
-4.49363e-06
-4.59799e-07
-3.61198e-06
-2.09541e-06
-2.49583e-06
-3.24257e-06
-1.26277e-06
-3.97642e-06
-4.27432e-06
-3.99141e-06
-5.73811e-06
-5.84735e-06
-5.23226e-06
-4.2225e-06
-2.95218e-06
-1.51004e-06
)
;

boundaryField
{
    movingWall
    {
        type            calculated;
        value           uniform 0;
    }
    fixedWalls
    {
        type            calculated;
        value           uniform 0;
    }
    frontAndBack
    {
        type            empty;
        value           nonuniform List<scalar> 0();
    }
}


// ************************************************************************* //
