/*--------------------------------*- C++ -*----------------------------------*\
  =========                 |
  \\      /  F ield         | OpenFOAM: The Open Source CFD Toolbox
   \\    /   O peration     | Website:  https://openfoam.org
    \\  /    A nd           | Version:  8
     \\/     M anipulation  |
\*---------------------------------------------------------------------------*/
FoamFile
{
    version     2.0;
    format      ascii;
    class       volScalarField;
    location    "0.986";
    object      T;
}
// * * * * * * * * * * * * * * * * * * * * * * * * * * * * * * * * * * * * * //

dimensions      [0 0 0 1 0 0 0];

internalField   nonuniform List<scalar> 
100
(
49.6996
5.21403
-4.88099
-1.65578
1.47916
0.529456
0.676539
-1.24511
-0.7774
0.317805
95.8285
49.0768
11.186
-4.07489
-3.92153
1.31525
-0.0659387
1.42658
0.433561
-0.645532
103.99
90.4547
49.2126
12.2988
-3.48366
-5.12493
2.83433
0.354807
-1.0517
0.0538546
102.133
103.171
88.6219
49.7163
13.1586
-3.50829
-7.92355
3.76704
3.14816
-0.60724
98.2598
104.409
103.004
87.1268
49.9261
15.1927
-2.98342
-10.0348
1.85647
3.21537
99.6912
98.2076
105.702
103.126
84.9942
49.8362
16.5608
-1.50163
-9.35154
-1.63048
100.104
98.755
98.1803
107.445
103.271
83.2888
49.4257
16.0181
0.940008
-4.79729
100.302
100.365
97.8449
97.308
109.479
102.245
85.0062
48.9366
10.1985
3.0621
100.286
100.355
100.521
97.0548
98.0021
109.342
99.8635
89.3182
49.6952
3.57605
99.958
100.091
100.559
100.217
96.9787
101.329
104.556
97.6914
96.4882
49.855
)
;

boundaryField
{
    left
    {
        type            fixedValue;
        value           uniform 100;
    }
    right
    {
        type            zeroGradient;
    }
    up
    {
        type            zeroGradient;
    }
    down
    {
        type            fixedValue;
        value           uniform 0;
    }
    frontAndBack
    {
        type            empty;
    }
}


// ************************************************************************* //
