/*--------------------------------*- C++ -*----------------------------------*\
  =========                 |
  \\      /  F ield         | OpenFOAM: The Open Source CFD Toolbox
   \\    /   O peration     | Website:  https://openfoam.org
    \\  /    A nd           | Version:  8
     \\/     M anipulation  |
\*---------------------------------------------------------------------------*/
FoamFile
{
    version     2.0;
    format      ascii;
    class       surfaceScalarField;
    location    "0.96";
    object      phi;
}
// * * * * * * * * * * * * * * * * * * * * * * * * * * * * * * * * * * * * * //

dimensions      [0 3 -1 0 0 0 0];

internalField   nonuniform List<scalar> 
760
(
1.24906e-06
2.46346e-13
1.24906e-06
1.35262e-12
1.24906e-06
1.58599e-12
1.24906e-06
1.37485e-12
1.24906e-06
1.14235e-12
1.24905e-06
9.45826e-13
1.24905e-06
7.95893e-13
1.24905e-06
6.7469e-13
1.24905e-06
5.45813e-13
1.24905e-06
4.11875e-13
1.24905e-06
2.79956e-13
1.24905e-06
1.29093e-13
1.24905e-06
-6.05723e-14
1.24905e-06
-2.9421e-13
1.24905e-06
-5.84433e-13
1.24905e-06
-9.78085e-13
1.24905e-06
-1.56259e-12
1.24906e-06
-2.21744e-12
1.24906e-06
-2.37717e-12
-1.41082e-12
3.7472e-06
1.50541e-13
3.7472e-06
2.97394e-12
3.7472e-06
3.89368e-12
3.74719e-06
3.70004e-12
3.74719e-06
3.25854e-12
3.74719e-06
2.82051e-12
3.74719e-06
2.41189e-12
3.74719e-06
2.02637e-12
3.74719e-06
1.63735e-12
3.74718e-06
1.22528e-12
3.74718e-06
7.77317e-13
3.74718e-06
2.7359e-13
3.74718e-06
-3.09008e-13
3.74718e-06
-9.9909e-13
3.74719e-06
-1.84408e-12
3.74719e-06
-2.91439e-12
3.74719e-06
-4.26597e-12
3.74719e-06
-5.59322e-12
3.7472e-06
-5.70392e-12
-3.51938e-12
6.2454e-06
-3.71927e-13
6.2454e-06
3.87633e-12
6.2454e-06
5.66264e-12
6.2454e-06
5.77842e-12
6.24539e-06
5.31665e-12
6.24539e-06
4.73322e-12
6.24539e-06
4.12355e-12
6.24539e-06
3.49431e-12
6.24539e-06
2.82598e-12
6.24539e-06
2.10398e-12
6.24539e-06
1.3129e-12
6.24539e-06
4.27493e-13
6.24539e-06
-5.83689e-13
6.24539e-06
-1.75896e-12
6.24539e-06
-3.14865e-12
6.24539e-06
-4.80223e-12
6.24539e-06
-6.70054e-12
6.2454e-06
-8.38651e-12
6.2454e-06
-8.45175e-12
-5.45124e-12
8.74372e-06
-1.17151e-12
8.74372e-06
4.00464e-12
8.74371e-06
6.57315e-12
8.74371e-06
7.1104e-12
8.74371e-06
6.80982e-12
8.74371e-06
6.23137e-12
8.74371e-06
5.5221e-12
8.74371e-06
4.72941e-12
8.74371e-06
3.85592e-12
8.74371e-06
2.88931e-12
8.74371e-06
1.81269e-12
8.7437e-06
6.0435e-13
8.74371e-06
-7.62449e-13
8.74371e-06
-2.32142e-12
8.74371e-06
-4.10998e-12
8.74371e-06
-6.14264e-12
8.74371e-06
-8.3339e-12
8.74371e-06
-1.01641e-11
8.74371e-06
-1.02074e-11
-6.92976e-12
1.12422e-05
-2.01677e-12
1.12422e-05
3.51267e-12
1.12422e-05
6.61589e-12
1.12422e-05
7.56228e-12
1.12422e-05
7.50562e-12
1.12422e-05
7.04132e-12
1.12422e-05
6.35498e-12
1.12422e-05
5.51885e-12
1.12422e-05
4.551e-12
1.12422e-05
3.44933e-12
1.12422e-05
2.20485e-12
1.12422e-05
8.02962e-13
1.12422e-05
-7.75054e-13
1.12422e-05
-2.55e-12
1.12422e-05
-4.53793e-12
1.12422e-05
-6.72256e-12
1.12422e-05
-8.98212e-12
1.12422e-05
-1.08171e-11
1.12422e-05
-1.09165e-11
-7.8018e-12
1.37408e-05
-2.76006e-12
1.37408e-05
2.60509e-12
1.37408e-05
5.9153e-12
1.37408e-05
7.16487e-12
1.37408e-05
7.36337e-12
1.37408e-05
7.08055e-12
1.37408e-05
6.51262e-12
1.37408e-05
5.74512e-12
1.37408e-05
4.80672e-12
1.37408e-05
3.70514e-12
1.37408e-05
2.44022e-12
1.37408e-05
1.00519e-12
1.37408e-05
-6.09393e-13
1.37408e-05
-2.40941e-12
1.37408e-05
-4.389e-12
1.37408e-05
-6.51192e-12
1.37408e-05
-8.6504e-12
1.37408e-05
-1.03862e-11
1.37408e-05
-1.0622e-11
-8.00588e-12
1.62397e-05
-3.28884e-12
1.62397e-05
1.46356e-12
1.62397e-05
4.65681e-12
1.62397e-05
6.0572e-12
1.62397e-05
6.46567e-12
1.62397e-05
6.3854e-12
1.62397e-05
5.99895e-12
1.62397e-05
5.39251e-12
1.62397e-05
4.59812e-12
1.62397e-05
3.6285e-12
1.62397e-05
2.48956e-12
1.62397e-05
1.18129e-12
1.62397e-05
-2.96756e-13
1.62397e-05
-1.93716e-12
1.62397e-05
-3.71767e-12
1.62397e-05
-5.5952e-12
1.62397e-05
-7.46152e-12
1.62397e-05
-9.01614e-12
1.62397e-05
-9.44139e-12
-7.56294e-12
1.87389e-05
-3.53644e-12
1.87389e-05
2.38684e-13
1.87389e-05
3.02903e-12
1.87389e-05
4.4153e-12
1.87389e-05
4.96128e-12
1.87389e-05
5.07288e-12
1.87389e-05
4.90142e-12
1.87389e-05
4.522e-12
1.87389e-05
3.96222e-12
1.87389e-05
3.23433e-12
1.87389e-05
2.3465e-12
1.87389e-05
1.30302e-12
1.87389e-05
1.10125e-13
1.87389e-05
-1.21514e-12
1.87389e-05
-2.64086e-12
1.87389e-05
-4.12715e-12
1.87389e-05
-5.60276e-12
1.87389e-05
-6.90458e-12
1.87389e-05
-7.53102e-12
-6.53886e-12
2.12383e-05
-3.48258e-12
2.12383e-05
-9.53968e-13
2.12383e-05
1.20167e-12
2.12383e-05
2.42444e-12
2.12383e-05
3.0311e-12
2.12383e-05
3.30786e-12
2.12383e-05
3.36193e-12
2.12383e-05
3.24793e-12
2.12383e-05
2.9827e-12
2.12383e-05
2.57347e-12
2.12383e-05
2.02724e-12
2.12383e-05
1.35001e-12
2.12383e-05
5.51838e-13
2.12383e-05
-3.44573e-13
2.12383e-05
-1.30371e-12
2.12383e-05
-2.29552e-12
2.12383e-05
-3.29345e-12
2.12383e-05
-4.27798e-12
2.12383e-05
-5.07754e-12
-5.03085e-12
2.3738e-05
-3.14747e-12
2.3738e-05
-2.03414e-12
2.3738e-05
-6.80358e-13
2.3738e-05
2.65161e-13
2.3738e-05
8.67949e-13
2.3738e-05
1.27986e-12
2.3738e-05
1.55472e-12
2.3738e-05
1.71981e-12
2.3738e-05
1.77723e-12
2.3738e-05
1.72638e-12
2.3738e-05
1.57068e-12
2.3738e-05
1.31584e-12
2.3738e-05
9.73696e-13
2.3738e-05
5.69695e-13
2.3738e-05
1.39258e-13
2.3738e-05
-2.99984e-13
2.3738e-05
-7.65724e-13
2.3738e-05
-1.37698e-12
2.3738e-05
-2.28914e-12
-3.16646e-12
2.6238e-05
-2.586e-12
2.6238e-05
-2.95492e-12
2.6238e-05
-2.49668e-12
2.6238e-05
-1.89385e-12
2.6238e-05
-1.33487e-12
2.6238e-05
-8.11438e-13
2.6238e-05
-3.29011e-13
2.6238e-05
1.08183e-13
2.6238e-05
4.85981e-13
2.6238e-05
7.9515e-13
2.6238e-05
1.03468e-12
2.6238e-05
1.20934e-12
2.6238e-05
1.33208e-12
2.6238e-05
1.43003e-12
2.6238e-05
1.53776e-12
2.6238e-05
1.66227e-12
2.6238e-05
1.74842e-12
2.6238e-05
1.55327e-12
2.6238e-05
6.10737e-13
-1.10113e-12
2.87383e-05
-1.88162e-12
2.87383e-05
-3.6957e-12
2.87383e-05
-4.14637e-12
2.87383e-05
-3.89612e-12
2.87383e-05
-3.38883e-12
2.87383e-05
-2.7654e-12
2.87383e-05
-2.09305e-12
2.87383e-05
-1.40818e-12
2.87383e-05
-7.40473e-13
2.87383e-05
-1.06282e-13
2.87383e-05
4.89876e-13
2.87383e-05
1.05259e-12
2.87383e-05
1.59685e-12
2.87383e-05
2.15235e-12
2.87383e-05
2.75464e-12
2.87383e-05
3.40563e-12
2.87383e-05
4.02476e-12
2.87383e-05
4.26892e-12
2.87383e-05
3.38828e-12
9.88159e-13
3.12389e-05
-1.13696e-12
3.12389e-05
-4.25147e-12
3.12389e-05
-5.53847e-12
3.12389e-05
-5.59284e-12
3.12389e-05
-5.11175e-12
3.12389e-05
-4.38748e-12
3.12389e-05
-3.54693e-12
3.12389e-05
-2.6556e-12
3.12389e-05
-1.75467e-12
3.12389e-05
-8.6427e-13
3.12389e-05
1.02365e-14
3.12389e-05
8.75227e-13
3.12389e-05
1.74974e-12
3.12389e-05
2.66826e-12
3.12389e-05
3.67087e-12
3.12389e-05
4.76243e-12
3.12389e-05
5.8531e-12
3.12389e-05
6.53261e-12
3.12389e-05
5.80556e-12
2.91247e-12
3.37398e-05
-4.58536e-13
3.37398e-05
-4.6204e-12
3.37398e-05
-6.57954e-12
3.37398e-05
-6.83583e-12
3.37398e-05
-6.32835e-12
3.37398e-05
-5.49678e-12
3.37398e-05
-4.51886e-12
3.37398e-05
-3.48112e-12
3.37398e-05
-2.42882e-12
3.37398e-05
-1.38079e-12
3.37398e-05
-3.39509e-13
3.37398e-05
7.05809e-13
3.37398e-05
1.78032e-12
3.37398e-05
2.92563e-12
3.37398e-05
4.19016e-12
3.37398e-05
5.59033e-12
3.37398e-05
7.04594e-12
3.37398e-05
8.12038e-12
3.37398e-05
7.62944e-12
4.48057e-12
3.62409e-05
6.60313e-14
3.62409e-05
-4.78652e-12
3.62409e-05
-7.1599e-12
3.62409e-05
-7.47186e-12
3.62409e-05
-6.87434e-12
3.62409e-05
-5.93915e-12
3.62409e-05
-4.87464e-12
3.62409e-05
-3.77387e-12
3.62409e-05
-2.67583e-12
3.62409e-05
-1.59202e-12
3.62409e-05
-5.18249e-13
3.62409e-05
5.62737e-13
3.62409e-05
1.68297e-12
3.62409e-05
2.89157e-12
3.62409e-05
4.24701e-12
3.62409e-05
5.78399e-12
3.62409e-05
7.45155e-12
3.62409e-05
8.83274e-12
3.62409e-05
8.64318e-12
5.50464e-12
3.87422e-05
3.86147e-13
3.87422e-05
-4.69024e-12
3.87422e-05
-7.14179e-12
3.87422e-05
-7.3487e-12
3.87422e-05
-6.6171e-12
3.87422e-05
-5.61519e-12
3.87422e-05
-4.54786e-12
3.87422e-05
-3.49365e-12
3.87422e-05
-2.47403e-12
3.87422e-05
-1.48781e-12
3.87422e-05
-5.21612e-13
3.87422e-05
4.48421e-13
3.87422e-05
1.45808e-12
3.87422e-05
2.55971e-12
3.87422e-05
3.82003e-12
3.87422e-05
5.29484e-12
3.87422e-05
6.97696e-12
3.87422e-05
8.51822e-12
3.87422e-05
8.66227e-12
5.81331e-12
4.12437e-05
4.83969e-13
4.12437e-05
-4.20474e-12
4.12437e-05
-6.36276e-12
4.12437e-05
-6.33723e-12
4.12437e-05
-5.49747e-12
4.12437e-05
-4.52913e-12
4.12437e-05
-3.58524e-12
4.12437e-05
-2.70706e-12
4.12437e-05
-1.89292e-12
4.12437e-05
-1.12793e-12
4.12437e-05
-3.89668e-13
4.12437e-05
3.49083e-13
4.12437e-05
1.11811e-12
4.12437e-05
1.96144e-12
4.12437e-05
2.9507e-12
4.12437e-05
4.16422e-12
4.12437e-05
5.63559e-12
4.12437e-05
7.12308e-12
4.12437e-05
7.55496e-12
5.29296e-12
4.37454e-05
3.90481e-13
4.37454e-05
-3.12299e-12
4.37454e-05
-4.65287e-12
4.37454e-05
-4.39827e-12
4.37454e-05
-3.60648e-12
4.37454e-05
-2.85165e-12
4.37454e-05
-2.19057e-12
4.37454e-05
-1.6137e-12
4.37454e-05
-1.10277e-12
4.37454e-05
-6.39745e-13
4.37454e-05
-2.02554e-13
4.37454e-05
2.32739e-13
4.37454e-05
6.85727e-13
4.37454e-05
1.18573e-12
4.37454e-05
1.7895e-12
4.37454e-05
2.56769e-12
4.37454e-05
3.5868e-12
4.37454e-05
4.75415e-12
4.37454e-05
5.30509e-12
3.88368e-12
4.62472e-05
1.66845e-13
4.62472e-05
-1.43567e-12
4.62472e-05
-2.04642e-12
4.62472e-05
-1.80044e-12
4.62472e-05
-1.35695e-12
4.62472e-05
-1.02112e-12
4.62472e-05
-7.57589e-13
4.62472e-05
-5.38469e-13
4.62472e-05
-3.55874e-13
4.62472e-05
-2.04222e-13
4.62472e-05
-6.31361e-14
4.62472e-05
8.74775e-14
4.62472e-05
2.43184e-13
4.62472e-05
4.0226e-13
4.62472e-05
6.0617e-13
4.62472e-05
9.01986e-13
4.62472e-05
1.32047e-12
4.62472e-05
1.86633e-12
4.62472e-05
2.23455e-12
1.75063e-12
4.87491e-05
4.87491e-05
4.87491e-05
4.87491e-05
4.87491e-05
4.87491e-05
4.87491e-05
4.87491e-05
4.87491e-05
4.87491e-05
4.87491e-05
4.87491e-05
4.87491e-05
4.87491e-05
4.87491e-05
4.87491e-05
4.87491e-05
4.87491e-05
4.87491e-05
)
;

boundaryField
{
    movingWall
    {
        type            calculated;
        value           uniform 0;
    }
    fixedWalls
    {
        type            calculated;
        value           uniform 0;
    }
    left
    {
        type            cyclic;
        value           nonuniform List<scalar> 
20
(
-3.87422e-05
-3.62409e-05
-3.37398e-05
-3.12389e-05
-2.87383e-05
-2.6238e-05
-2.3738e-05
-2.12383e-05
-1.87389e-05
-1.62397e-05
-1.37408e-05
-1.12422e-05
-8.74371e-06
-6.2454e-06
-3.7472e-06
-1.24906e-06
-4.12437e-05
-4.37454e-05
-4.62472e-05
-4.87491e-05
)
;
    }
    right
    {
        type            cyclic;
        value           nonuniform List<scalar> 
20
(
3.87422e-05
3.62409e-05
3.37398e-05
3.12389e-05
2.87383e-05
2.6238e-05
2.3738e-05
2.12383e-05
1.87389e-05
1.62397e-05
1.37408e-05
1.12422e-05
8.74371e-06
6.2454e-06
3.7472e-06
1.24906e-06
4.12437e-05
4.37454e-05
4.62472e-05
4.87491e-05
)
;
    }
    frontAndBack
    {
        type            empty;
        value           nonuniform List<scalar> 0();
    }
}


// ************************************************************************* //
