/*--------------------------------*- C++ -*----------------------------------*\
  =========                 |
  \\      /  F ield         | OpenFOAM: The Open Source CFD Toolbox
   \\    /   O peration     | Website:  https://openfoam.org
    \\  /    A nd           | Version:  8
     \\/     M anipulation  |
\*---------------------------------------------------------------------------*/
FoamFile
{
    version     2.0;
    format      ascii;
    class       volVectorField;
    location    "38";
    object      U;
}
// * * * * * * * * * * * * * * * * * * * * * * * * * * * * * * * * * * * * * //

dimensions      [0 1 -1 0 0 0 0];

internalField   nonuniform List<vector> 
2844
(
(0.985398 -0.000334525 -4.64695e-05)
(1.02129 -0.00828949 -1.72986e-05)
(1.03348 -0.0160579 0.000231713)
(1.05573 -0.0126255 -1.89116e-05)
(1.06457 -0.00529427 -0.000123723)
(1.04227 -0.0180885 -0.000142367)
(1.06162 -0.00324672 2.41132e-05)
(1.01884 -0.00775816 0.000135062)
(1.02111 -0.0214825 2.03348e-05)
(1.00055 -0.00343714 6.9148e-05)
(1.00437 -0.0101109 -0.000166603)
(1.00696 -0.0150578 -0.00012305)
(0.949243 -0.0040226 0.0001233)
(0.961088 -0.00834565 0.000394642)
(0.925626 -0.0389546 -0.00213141)
(1.01944 -0.051045 -0.00223952)
(1.01885 -0.048348 -0.00116304)
(1.01732 -0.0516306 -0.0013479)
(1.05733 -0.0253535 -0.000601853)
(1.04402 -0.00998214 -0.000191977)
(0.984409 -0.00576363 -0.000124236)
(1.02059 -0.0323089 -6.24447e-05)
(1.03492 -0.0141688 0.000575363)
(1.07617 -0.00876318 0.000236846)
(1.07069 0.0209382 -0.000567855)
(1.04999 0.0264225 -0.000342302)
(1.08007 0.0243929 7.43022e-05)
(1.00596 0.0332979 0.000484695)
(1.03115 0.0360991 0.000101669)
(1.01942 0.0197211 0.00021368)
(1.00942 0.0079353 -8.95959e-05)
(1.02527 0.0595785 -4.59464e-05)
(0.958044 0.0378242 -0.000657584)
(0.935966 0.0189192 0.000622027)
(0.888242 0.0169961 -0.00465972)
(1.01851 0.0161173 -0.00537746)
(1.01357 0.069586 -0.000617369)
(1.04028 0.0361274 -0.00138531)
(1.11518 0.00939203 -0.00113191)
(1.06204 0.0214206 -0.000330008)
(0.976925 -0.00379887 -0.000593663)
(1.03427 -0.053752 -0.000424169)
(1.06829 -0.0696975 0.00345264)
(1.11141 -0.0469422 -7.73143e-05)
(1.12264 0.0279881 -0.000884818)
(1.06421 -0.0264795 -0.0021466)
(1.06058 0.0370001 -0.000516172)
(1.04479 0.0142177 0.000414537)
(1.05617 -0.0372128 0.000225095)
(1.00859 0.0169775 0.00273015)
(1.04307 -0.0108485 -0.00236527)
(1.0179 0.0212313 -0.00113001)
(0.940064 0.0797513 0.00486942)
(0.971983 0.0533633 -0.00276291)
(0.943346 -0.0567224 -0.0201372)
(1.06604 -0.0722629 -0.0161056)
(1.05861 -0.0497032 -0.00916339)
(0.993041 -0.122448 -0.0128379)
(1.03686 -0.020863 -0.00804109)
(1.0522 0.0398671 -0.00298555)
(0.968853 -0.0137275 -0.00226788)
(1.04644 -0.0995622 0.0016066)
(1.07747 -0.10162 0.00591881)
(1.18268 -0.03398 0.00308147)
(1.1362 0.0708978 -0.00319688)
(1.10541 0.104339 -0.00640775)
(1.12822 0.0444833 -0.00122697)
(1.00219 0.0272687 0.000193048)
(1.10061 0.0645281 0.00453242)
(1.10992 0.0200727 0.00586742)
(1.02512 0.0287571 -0.00563249)
(1.15462 0.147851 -0.00533251)
(1.09857 0.0235982 0.000135161)
(0.957136 0.054804 -0.0122973)
(0.853219 0.196841 -0.00794969)
(0.946119 0.114939 -0.00115572)
(1.04315 0.247021 -0.015162)
(0.979619 0.190102 -0.00363886)
(1.1472 0.0415464 0.00726701)
(1.17978 0.0364248 0.00309092)
(0.961212 -0.00198709 -0.0080988)
(1.10231 -0.172228 0.00784461)
(1.15868 -0.219098 0.0181154)
(1.20609 -0.129598 0.00425083)
(1.2706 0.135786 -0.00406469)
(1.15767 0.019432 -0.0205088)
(1.11707 0.123942 -0.0185193)
(1.0584 0.0164469 -0.011402)
(1.15373 -0.158821 0.00527156)
(1.13186 0.0144079 -0.00353901)
(1.26716 0.00953266 0.0137543)
(1.11345 0.0460265 0.0505095)
(0.709221 0.280496 0.0177119)
(0.73753 0.406601 -0.028953)
(0.849689 0.00863897 -0.0184615)
(0.829094 -0.200132 -0.00401547)
(0.858145 0.0342914 -0.00559277)
(0.804773 -0.204337 0.00647348)
(1.06614 -0.229847 0.0241655)
(0.998491 -0.00689177 0.0135856)
(1.02373 -0.0144822 -0.00493095)
(1.05941 -0.3261 0.00628493)
(1.14455 -0.294383 0.00143381)
(1.38747 -0.0630061 0.0231803)
(1.46555 0.162518 -0.0103707)
(1.35569 0.37615 -0.000413693)
(1.08397 0.234311 -0.0182614)
(0.964756 0.0780125 -0.0158368)
(1.1919 -0.020587 -0.0522242)
(1.4482 0.0524867 0.00512016)
(1.33658 0.0235361 0.0302284)
(1.2721 0.177088 -0.0631377)
(1.29651 0.0769877 -0.0226093)
(1.60177 0.229284 0.0879381)
(1.65207 0.506644 0.0814357)
(0.995269 0.198108 0.0546931)
(1.03652 0.322333 0.0348307)
(0.716263 -0.0317761 0.0418511)
(0.729157 -0.301492 0.0223894)
(0.970341 -0.00186389 0.0106548)
(1.0372 -0.0419486 0.02758)
(1.0794 -0.36707 -0.00395107)
(1.21269 -0.542761 -0.0565244)
(1.7191 -0.506217 0.0233205)
(1.89487 -0.00858482 0.0455562)
(1.4166 0.344865 -0.00749937)
(1.59944 0.666163 -0.0257381)
(0.938814 -0.0157662 0.0244732)
(0.912047 -0.26374 0.010443)
(1.62481 0.012692 0.0261566)
(1.35564 -0.00407939 0.0395566)
(1.06001 0.14038 0.0508431)
(0.992476 0.280512 0.017341)
(1.10924 0.385241 0.0174624)
(0.883447 -0.00332164 0.0499533)
(0.334062 -0.319812 0.000868211)
(0.565298 -0.069127 0.00739018)
(0.364711 -0.338995 0.01311)
(0.465604 -0.601185 -0.0419789)
(0.946567 -0.23079 -0.0248879)
(1.12286 -0.173299 0.0596863)
(0.765553 -0.539274 -0.00578599)
(1.59902 -0.672072 -0.00600111)
(2.37357 -1.07293 -0.0143631)
(2.22691 -0.527859 -0.0300649)
(1.82241 0.722143 0.00310657)
(1.70784 0.566158 -0.00924483)
(1.46854 0.566805 -0.012184)
(1.3546 0.154428 -0.0335665)
(1.33042 0.0358877 -0.104903)
(1.68968 0.128141 -0.135954)
(1.87313 0.333069 0.00221015)
(1.25207 0.483986 0.0594787)
(0.913577 0.269041 0.030192)
(1.1249 0.506415 -0.0497917)
(0.838762 0.631384 -0.0711714)
(0.67761 0.353786 -0.0141863)
(0.729195 -0.0405847 0.00741505)
(0.476373 -0.453098 -0.0257399)
(0.79463 -0.18698 -0.0298001)
(1.34661 -0.235561 0.0876077)
(0.34829 -0.797811 0.0128382)
(1.38649 -1.62422 -0.0638871)
(0.889818 0.658053 0.0552115)
(0.945401 1.20285 -0.174232)
(0.257154 0.364231 -0.00996862)
(0.584341 0.0296928 0.0324339)
(0.650358 0.10451 0.0242898)
(1.23096 0.242228 0.00484093)
(1.60621 0.3221 -0.00950022)
(1.52432 0.291776 -0.00544288)
(1.37096 0.698764 0.00901096)
(1.06506 0.75406 0.045455)
(1.05018 0.200276 0.0256328)
(0.913675 -0.286982 0.0371389)
(0.481493 -0.488865 0.00357747)
(0.632579 -0.235251 -0.0332578)
(0.900525 -0.0203539 0.0224668)
(0.0990216 -0.85057 0.0295969)
(0.219581 -0.724783 0.0249402)
(-0.253918 -0.0434429 0.0332034)
(0.895268 1.46299 -0.151032)
(0.0524245 -0.483605 0.0993313)
(0.121801 -0.447012 0.0335689)
(0.118789 -0.179767 0.0464949)
(0.692373 -0.176609 0.012306)
(1.11273 0.0157303 -0.0273115)
(1.36974 0.361475 -0.0145494)
(1.30895 0.936235 0.0688869)
(1.23172 0.744514 0.0390469)
(1.44152 0.404552 -0.0529725)
(1.45358 0.0791126 -0.0195666)
(1.147 -0.360733 0.0337465)
(0.963447 -0.12231 0.0095061)
(0.919283 -0.000388533 -0.0110187)
(0.387621 0.14285 0.0374127)
(-0.167197 0.0337399 0.0030697)
(0.399601 1.49068 -0.0577183)
(1.01936 0.387351 -0.00474941)
(0.671736 -0.534129 0.0842858)
(0.597926 -0.634734 0.0541053)
(0.59662 -0.409101 0.0166316)
(0.747846 -0.0248176 -0.0371747)
(1.06278 0.00603706 -0.00483461)
(1.34221 0.473342 0.00521892)
(1.5916 0.767312 -0.0318831)
(1.60877 0.644475 -0.0101403)
(1.28882 0.164035 0.00987319)
(1.18404 -0.467016 0.00974339)
(1.06133 -0.27696 0.0106522)
(1.35365 0.0676489 0.0270885)
(0.544317 0.613078 0.0197726)
(0.340844 1.22917 0.0010525)
(0.634533 -0.890098 -0.0442044)
(0.442377 0.698011 0.0707564)
(1.25144 -0.320267 -0.0330695)
(1.55626 -0.759391 0.0300345)
(1.69944 -0.808483 0.018317)
(1.37314 -0.23124 0.0350312)
(1.04425 0.204616 0.0428365)
(1.15983 0.175432 -0.00987071)
(1.27314 0.779151 -0.030998)
(1.49184 0.815703 -0.00766421)
(1.55168 0.424281 0.0412528)
(1.18299 0.161384 0.0146059)
(1.12433 -0.259905 -0.0103458)
(1.1417 -0.101663 -0.0012514)
(1.05456 0.194793 0.00125823)
(1.02393 0.387605 0.0806876)
(0.936836 1.16831 -0.0964005)
(0.891739 -0.435613 0.0227605)
(1.36111 -0.290534 0.0175634)
(1.41989 -0.05712 0.0765333)
(2.15854 -0.357787 0.00835134)
(1.56361 -0.663739 0.0105867)
(1.16346 -0.625246 0.00714021)
(1.14722 -0.414373 0.0282497)
(0.9395 0.00315148 0.0124675)
(1.11416 0.164042 -0.0361828)
(1.34901 0.58963 0.0103314)
(1.42272 0.607504 0.0132162)
(1.30376 0.670661 -0.021937)
(1.30965 0.460907 -0.0197964)
(1.45053 -0.437719 0.0382604)
(1.28178 -0.345927 0.0403295)
(1.0241 -0.0258243 0.0105655)
(1.05244 0.310573 -0.0100466)
(1.31708 0.678399 0.0375975)
(1.7422 1.12574 0.0290196)
(1.84815 0.392178 0.0664611)
(1.47555 -0.356616 -0.044253)
(1.42027 -0.276089 -0.0538154)
(1.64634 -0.220708 -0.00627796)
(1.56692 -0.158213 -0.0235861)
(1.37051 -0.3237 0.0409409)
(0.790606 -0.421221 0.0928119)
(0.399352 -0.00238757 -0.0166377)
(0.551547 0.275523 -0.0936418)
(0.718883 0.160584 -0.131446)
(1.24401 0.55403 -0.121142)
(1.36167 0.86166 -0.0564397)
(1.2335 0.845772 0.0012824)
(1.28359 0.203415 0.0521798)
(1.06185 -0.5413 0.0325037)
(0.768299 -0.297849 0.0025464)
(0.981378 0.0424312 -0.00474944)
(1.0145 0.215405 -0.000379489)
(1.15928 0.359501 0.0284659)
(1.4669 0.211136 0.0530524)
(1.57248 -0.143305 -0.00534119)
(1.29338 -0.227527 0.00643513)
(1.37168 -0.11688 -0.00682737)
(1.35765 -0.22896 0.00180166)
(1.27081 -0.0832624 3.58418e-05)
(1.41134 -0.269241 0.00128578)
(1.31244 -0.661597 0.0751779)
(0.904461 -0.315472 -0.0313594)
(0.876739 0.281964 -0.103799)
(0.706787 0.422827 -0.0949781)
(0.754673 0.876604 -0.0856645)
(0.857686 0.722499 0.0139979)
(1.19995 0.421095 0.064551)
(1.3764 -0.0105005 0.0640198)
(1.24222 -0.270786 0.0166669)
(0.897354 -0.113296 -0.0157637)
(0.994243 0.016424 -0.00605586)
(1.04949 0.0825891 0.0162313)
(1.08837 0.178609 0.00840811)
(1.29228 0.252269 -0.0067918)
(1.35052 0.0405573 0.01246)
(1.12025 -0.247673 0.00931795)
(1.10717 -0.127844 -0.0214742)
(1.24746 -0.0688864 -0.0181454)
(1.1374 -0.252072 0.0159501)
(1.03965 -0.284091 -0.0183789)
(0.994587 -0.399201 0.0248943)
(0.632081 0.326596 -0.0135159)
(0.484201 0.719588 -0.0552606)
(0.449358 0.723028 -0.0433575)
(0.662522 0.882235 -0.00218057)
(0.864659 0.297213 0.0362339)
(0.860196 0.0371016 0.0382675)
(0.888771 -0.30388 -0.00287677)
(0.791561 -0.169755 0.00944046)
(0.704418 0.190803 0.0210871)
(1.02014 0.0378239 0.0012822)
(0.983116 0.00145917 0.000179577)
(1.06332 0.141913 -0.00225153)
(1.15808 0.0683211 0.00815551)
(1.18212 -0.0359965 -0.00255329)
(1.22657 -0.0516978 -0.0125861)
(1.0875 -0.0929746 0.000258975)
(1.13665 -0.0581149 -0.0011309)
(1.09176 -0.0569645 0.00584097)
(0.952775 -0.126331 0.00124184)
(0.875163 -0.421914 -1.38856e-06)
(0.553077 0.138486 0.0362651)
(0.59493 0.524781 0.0317433)
(0.661507 0.364648 0.0297596)
(0.832931 0.388263 0.0446507)
(1.07777 0.244849 0.0231347)
(1.06267 0.132174 0.017809)
(1.08345 -0.045576 -0.0110153)
(0.89648 -0.195605 -0.0123894)
(0.876184 -0.0504013 0.0120204)
(1.0134 0.00610457 -6.48711e-05)
(1.00743 0.0302498 -0.00111876)
(1.04213 0.0664475 0.0023868)
(1.10917 0.0662282 0.00218646)
(1.09902 0.00881813 -0.00124487)
(1.11513 -0.0436521 -0.00290092)
(1.07036 -0.0352323 -0.00144614)
(1.05591 -0.0771099 0.00138649)
(1.01938 -0.0950389 0.003329)
(0.986969 -0.0989277 0.00156603)
(0.918578 -0.0916811 -0.0119939)
(0.720753 0.14199 0.0408093)
(0.795165 0.193025 0.0564859)
(0.841564 0.144729 0.0472571)
(0.870753 0.099766 0.0328296)
(0.979659 -0.0246488 0.0118495)
(0.992062 -0.0407779 0.0130501)
(1.00814 -0.046996 0.00382195)
(0.929954 0.00285712 -0.0158601)
(0.963862 0.0406672 -0.00980838)
(1.00622 0.013278 -0.000215825)
(1.00199 -0.000169322 -7.5668e-05)
(1.03124 0.0355379 0.000953097)
(1.05977 0.00931597 0.000408219)
(1.07903 -0.00166932 -0.00102402)
(1.08789 -0.0114301 -0.000816379)
(1.04942 -0.0314872 0.000670209)
(1.04112 -0.0278447 -0.000129688)
(0.976588 -0.0552319 -0.000784576)
(0.946664 -0.0663348 0.00150547)
(0.848395 -0.106364 -0.00114487)
(0.815642 -0.0332027 0.00810514)
(0.89007 0.00493705 0.0154452)
(0.885125 0.00119878 0.0116555)
(0.945422 0.0484289 0.0044266)
(0.960901 0.0332313 0.00115793)
(0.911356 -0.00695553 -0.00122198)
(0.93098 -0.0173651 0.00355854)
(0.819856 -0.0381969 -0.000388332)
(0.928502 -0.0253444 -0.00761485)
(1.00707 -0.000401445 -7.79209e-05)
(1.00427 0.00826316 8.16798e-05)
(1.02407 0.0101424 0.000252466)
(1.0532 0.0168142 -0.000157603)
(1.05781 0.00388633 -0.000241976)
(1.07079 -0.00724961 -0.000102709)
(1.03405 -0.00349841 0.000116226)
(1.02646 -0.0135315 0.000102593)
(0.977112 -0.00547137 0.000118535)
(0.947196 -0.00452127 9.50097e-05)
(0.881929 0.0112808 -0.000465241)
(0.84271 0.0472664 0.0021861)
(0.878308 0.040559 0.00341302)
(0.866715 0.0303806 0.00304605)
(0.900391 0.0146768 0.000500878)
(0.945574 0.00118287 0.00128975)
(0.920129 0.00209947 -0.000717402)
(0.953853 -0.00482151 0.00286516)
(0.853654 0.0117958 -0.00218339)
(0.946809 0.0239041 -0.00785607)
(0.985392 -0.00040204 -6.04604e-05)
(1.02139 -0.00824899 -5.57253e-05)
(1.03337 -0.0158874 0.000416665)
(1.05566 -0.0125448 -7.47593e-05)
(1.06461 -0.00560347 -0.000208992)
(1.04239 -0.018078 -0.000293204)
(1.06167 -0.00322923 6.2374e-05)
(1.01875 -0.00770607 0.000313337)
(1.02102 -0.021385 -6.00742e-05)
(1.00061 -0.00346063 0.00021951)
(1.00428 -0.0099543 -0.000524011)
(1.00717 -0.0150316 -0.000293604)
(0.949388 -0.00452556 0.000401968)
(0.960472 -0.00849909 0.000869808)
(0.92457 -0.0393294 -0.00743296)
(1.01938 -0.0515763 -0.00780846)
(1.01929 -0.0476393 -0.00399161)
(1.0178 -0.0510195 -0.00413334)
(1.05778 -0.0253919 -0.00188738)
(1.04412 -0.0100117 -0.000576372)
(0.984515 -0.00618241 -0.000118037)
(1.02096 -0.0323802 -0.00018267)
(1.03415 -0.0120293 0.000899731)
(1.07589 -0.00910787 0.000348822)
(1.0713 0.0199819 -0.00104731)
(1.05079 0.0250116 -0.000668768)
(1.07985 0.02472 0.000146121)
(1.00534 0.0346517 0.00114112)
(1.0306 0.0360849 -0.000570466)
(1.01994 0.0203675 0.00128318)
(1.00936 0.00619697 -0.000453495)
(1.02571 0.0583423 -0.0020332)
(0.958015 0.0402545 -0.000499401)
(0.935594 0.0235542 0.00125361)
(0.882997 0.00117293 -0.0181703)
(1.01399 -0.00138797 -0.019072)
(1.01535 0.0590341 -0.00564068)
(1.0394 0.0245947 -0.00707051)
(1.11364 0.00498611 -0.00480608)
(1.06214 0.0201226 -0.00150592)
(0.976875 -0.00550905 -0.000509264)
(1.03686 -0.0534377 -0.0010318)
(1.06457 -0.0634169 0.00493115)
(1.11113 -0.0457829 -0.00136084)
(1.12481 0.0218533 -0.000959368)
(1.06555 -0.0288312 -0.00370493)
(1.06 0.038794 -0.000504682)
(1.04167 0.0185911 0.000919188)
(1.05252 -0.0370888 0.000540592)
(1.01451 0.0180959 0.00395397)
(1.03704 -0.0107359 -0.00821127)
(1.02064 0.0219531 0.00169005)
(0.950147 0.0727893 0.0127762)
(0.977272 0.06529 -0.0223745)
(0.894094 -0.0877672 -0.0636047)
(1.00395 -0.125012 -0.0421476)
(1.03096 -0.0536359 -0.0266517)
(0.981406 -0.128494 -0.0335619)
(1.04368 -0.0304956 -0.0190002)
(1.05654 0.0358963 -0.00695761)
(0.969548 -0.0216575 -0.0016315)
(1.05226 -0.100301 0.00309898)
(1.06931 -0.0649317 0.00512065)
(1.17601 -0.0391496 0.00211347)
(1.14777 0.0610577 -0.00550021)
(1.11502 0.0853171 -0.0114264)
(1.12704 0.0432127 0.00116479)
(0.997959 0.0362457 0.00203193)
(1.0871 0.0598483 -0.00211317)
(1.11335 0.0465768 0.0197159)
(1.04377 0.0124903 -0.00904866)
(1.14598 0.124286 -0.0344353)
(1.06479 0.0685135 -0.0120788)
(0.912369 0.101263 -0.0244268)
(0.731374 0.0530254 -0.0231194)
(0.80523 -0.0741285 -0.00389512)
(0.921383 0.0995481 -0.0287287)
(0.888217 0.0322146 -0.00704816)
(1.11169 -0.0480414 0.0122333)
(1.16146 0.00899397 0.00449069)
(0.966068 -0.0308625 -0.00998304)
(1.12236 -0.149042 0.0190831)
(1.13769 -0.147555 0.0159647)
(1.18678 -0.115962 -0.00707845)
(1.31506 0.088606 -0.0150993)
(1.20634 -0.0235388 -0.0224203)
(1.14839 0.121231 -0.0148656)
(1.06387 0.0349462 -0.0171171)
(1.10165 -0.135381 0.000136564)
(1.16359 0.054457 -0.0173025)
(1.17732 -0.0280626 -0.0216384)
(1.07199 0.0156246 0.092012)
(0.975621 0.32027 0.0699455)
(0.961448 0.400296 -0.100296)
(0.738981 -0.0830572 -0.113554)
(0.565387 -0.336412 -0.0160154)
(0.695637 -0.15282 -0.00814063)
(0.68017 -0.340114 0.0158937)
(0.970273 -0.246613 0.0396797)
(0.968689 -0.00479411 0.0219388)
(1.05963 -0.116748 -0.00403624)
(1.07789 -0.227829 0.0136202)
(1.08494 -0.0647629 0.00984287)
(1.37717 -0.0708474 0.00698112)
(1.47826 0.0742019 -0.00890282)
(1.49068 0.165988 0.00201497)
(1.33224 0.115406 -0.054839)
(0.974404 0.0705346 -0.00788678)
(1.08628 -0.00745463 -0.0637432)
(1.37288 0.129381 -0.030773)
(1.37765 0.158381 0.0228656)
(1.21579 0.283308 0.0323151)
(1.11638 0.142484 -0.0937229)
(1.47077 0.312916 -0.138175)
(1.38674 0.49558 0.0749997)
(0.694935 0.03176 0.145868)
(0.769188 0.0263132 0.0738351)
(0.576888 -0.16444 0.0689682)
(0.749579 -0.229439 0.0210096)
(0.982 0.0363376 0.00701856)
(1.07369 -0.163671 -0.00200538)
(1.10914 -0.170733 0.0298032)
(1.33676 -0.485398 -0.0572677)
(1.70365 -0.273555 0.0237276)
(1.86593 -0.0490485 0.0861031)
(1.69728 0.164123 -0.0354375)
(1.27742 0.593516 0.0474723)
(0.774097 -0.0112237 -0.0147234)
(0.65231 -0.567755 -0.269755)
(1.27821 0.00488816 -0.105531)
(1.18469 0.110914 0.0462088)
(1.20217 -0.00433027 0.00158918)
(1.15312 0.29703 -0.158678)
(1.06341 0.562327 -0.0141713)
(0.896918 0.265891 0.125493)
(0.519132 -0.117742 -0.0520876)
(0.490401 -0.0969472 -0.0286489)
(0.426524 -0.305406 0.022782)
(0.607715 -0.49829 -0.0667536)
(0.976539 -0.121164 -0.0495433)
(1.03654 -0.0752749 0.0302335)
(1.05617 -0.562212 0.00215078)
(1.92285 -1.04006 -0.0284913)
(1.95021 -0.507607 -0.0481904)
(2.05509 0.300565 -0.109405)
(1.99455 0.611532 0.0523649)
(1.73151 0.565771 0.124181)
(1.7546 0.829314 -0.382916)
(1.14834 0.156747 -0.128814)
(0.838704 -0.141769 0.0170221)
(1.02033 -0.0133965 -0.0522102)
(1.3644 0.545418 0.0720813)
(1.22392 0.733728 0.150355)
(1.26657 0.268822 0.0521773)
(1.43738 0.404635 -0.164382)
(1.07481 0.327281 -0.180977)
(0.747419 0.127398 -0.0475755)
(0.824397 -0.232865 0.0351402)
(0.69763 -0.687314 -0.0307633)
(0.900049 -0.268652 -0.0646867)
(1.1284 0.012529 0.0510496)
(1.37002 -0.689202 0.0160566)
(1.86421 -1.55902 -0.341188)
(0.496002 0.507767 0.218774)
(0.397647 0.960036 -0.171343)
(-0.0223925 -0.311374 0.280207)
(0.24572 -0.431376 0.0390587)
(0.245304 -0.428986 -0.118665)
(0.999503 -0.0982535 -0.088907)
(1.38299 0.297558 0.100834)
(1.43033 0.606046 0.0160734)
(1.18096 0.648925 -0.0627872)
(0.995829 0.406028 0.0123301)
(1.08738 0.0244342 -0.0205949)
(1.05406 -0.382088 0.0742175)
(0.782448 -0.664016 0.0598015)
(0.768347 -0.296238 -0.0426061)
(0.387135 -6.38145e-05 0.039346)
(1.07639 -0.912314 0.177025)
(-0.0494458 -0.468226 -0.294483)
(-0.0617533 0.0556857 0.177529)
(0.113923 0.636923 0.0814262)
(0.17699 -0.273694 0.0749866)
(0.252304 -0.651851 0.158429)
(0.198079 -0.622328 0.0624835)
(0.60848 -0.357871 -0.0803574)
(0.975618 0.111089 -0.0274371)
(1.28072 0.324176 0.0653958)
(1.3874 0.755238 0.0688107)
(1.51956 0.535361 -0.0657495)
(1.4861 0.14958 -0.142225)
(1.36518 0.0393221 -0.049642)
(1.23502 -0.517068 0.0762689)
(1.09923 -0.357971 0.0361901)
(0.370941 -0.0708474 -0.157895)
(1.22057 -0.110907 0.281852)
(-0.163989 0.0432601 0.0133953)
(0.0535024 0.866482 0.123358)
(0.753184 0.0275297 -0.132808)
(1.05237 -0.711975 0.0942727)
(1.19632 -0.990127 0.151696)
(0.909005 -0.564157 -0.0401687)
(0.941729 0.111765 -0.162347)
(1.21965 0.377144 -0.100116)
(1.44594 0.662531 -0.11674)
(1.55493 0.519208 -0.0672052)
(1.42031 0.161147 0.0809798)
(1.21342 -0.170658 0.0656117)
(1.32811 -0.491551 0.0168017)
(1.2036 -0.290029 0.0176834)
(1.27616 0.00465402 -0.104768)
(1.12737 -0.0599839 -0.0345736)
(0.713828 1.42274 0.0484626)
(0.373566 -0.318564 -0.0856288)
(0.819608 0.203678 0.168071)
(1.45298 -0.666505 -0.00169573)
(1.29622 -0.738107 -0.0991381)
(1.61817 -0.870883 0.0170844)
(1.5468 -0.49667 0.130014)
(1.28811 -0.0619578 0.00217922)
(1.32092 0.105286 -0.112561)
(1.30737 0.529525 -0.0742311)
(1.15982 0.477028 -0.0119442)
(1.23839 0.363055 0.00360512)
(1.21303 0.0855906 0.00727797)
(1.28088 -0.525198 0.0178575)
(1.2485 -0.255661 0.00507578)
(1.02071 0.128201 0.00948532)
(1.09237 0.436002 0.028476)
(1.2315 0.514528 -0.00152784)
(0.68588 -0.2685 0.083601)
(1.47296 -0.190146 0.0768927)
(1.54443 -0.334116 -0.0251743)
(2.16407 -0.608382 -0.0332629)
(1.65351 -0.696778 0.076159)
(1.04589 -0.886551 -0.0080159)
(1.17004 -0.43693 -0.0140182)
(1.10124 0.305684 -0.0313339)
(1.01996 0.446162 -0.0672441)
(1.16826 0.842326 -0.0143136)
(1.07773 0.58302 -0.0163852)
(1.07579 0.238312 -0.060849)
(1.17115 -0.114067 -0.0446962)
(1.36311 -0.698745 0.0735219)
(1.26267 -0.417907 0.0803743)
(1.12697 0.0376877 0.0342516)
(0.965799 0.248407 -0.0420427)
(1.49014 0.461998 0.0617901)
(1.60233 0.224232 -0.00926927)
(1.7434 0.0545075 0.132316)
(1.64178 -0.239058 0.00597482)
(1.49718 -0.237525 -0.0542647)
(1.50079 -0.23423 0.0241401)
(1.02066 -0.308066 -0.000598048)
(0.735828 -0.249668 0.0130162)
(0.731942 -0.561469 0.156108)
(0.643556 -0.286453 0.0508997)
(0.715529 0.133164 -0.0953544)
(0.645365 0.0964787 -0.156623)
(0.863655 0.596568 -0.142199)
(1.02687 0.392905 0.0082231)
(1.12827 0.14137 0.116132)
(1.23967 -0.215236 0.133873)
(1.15585 -0.571905 0.0354786)
(0.850068 -0.204134 0.00432642)
(1.02073 0.101094 -0.001957)
(0.977243 0.091555 0.0104103)
(1.18425 0.229745 0.0251948)
(1.48669 0.199252 0.0388896)
(1.52591 -0.118839 0.016722)
(1.35458 -0.231876 0.0131712)
(1.43061 -0.0478229 -0.0597267)
(1.38079 -0.131337 -0.02838)
(1.2957 -0.22893 0.0370614)
(1.33366 -0.216323 -0.0130376)
(1.50081 -0.583891 0.035486)
(1.1726 -0.586055 0.0387459)
(0.967762 -0.0500592 -0.0132756)
(0.70544 0.104291 -0.0515683)
(0.561158 0.348542 -0.0425483)
(0.787584 0.102032 0.0356133)
(1.10789 -0.0254755 0.0431332)
(1.37862 -0.0672295 0.0867616)
(1.37555 -0.281499 -0.00532707)
(0.972564 -0.14689 -0.0589776)
(0.994144 0.0231871 -0.00514009)
(1.04346 0.0717435 0.0258048)
(1.13147 0.148099 0.00588684)
(1.25162 0.204049 -0.00494621)
(1.31943 0.101172 0.00315552)
(1.20259 -0.156078 -0.00392965)
(1.15355 -0.154213 -0.0313305)
(1.21044 -0.0609586 -0.0446463)
(1.0988 -0.286973 0.0152979)
(1.04001 -0.359277 0.00399912)
(0.91333 -0.224749 -0.00013793)
(0.670417 0.058434 0.0225493)
(0.603094 0.0681278 0.0382891)
(0.631057 0.090667 0.0263883)
(0.813405 0.263656 0.0513999)
(0.928545 -0.0235967 0.0647778)
(0.881576 -0.128415 0.058439)
(0.910234 -0.317852 0.0278861)
(0.793925 -0.133915 0.00936143)
(0.694598 0.179194 -0.00461799)
(1.01564 0.0433838 0.00207425)
(1.00722 0.00422458 0.00121247)
(1.05028 0.108617 -0.0040474)
(1.1279 0.059991 0.0116976)
(1.20734 -0.0127867 -0.00124535)
(1.23685 -0.0325139 -0.0291627)
(1.08211 -0.0905689 -0.00541513)
(1.13382 -0.0705861 0.00318035)
(1.095 -0.0799866 -0.00294713)
(0.9419 -0.147585 0.00373009)
(0.843541 -0.269591 -0.00605978)
(0.703368 -0.190108 0.078392)
(0.835269 -0.076205 0.0969615)
(0.833935 -0.15351 0.0871226)
(0.943369 0.0606706 0.0903414)
(1.11239 0.131214 0.023862)
(1.06792 0.0613558 0.007045)
(1.05883 -0.115932 -0.026047)
(0.804845 -0.12011 0.00835086)
(0.792976 0.072619 0.0402346)
(1.01402 0.00881092 -6.48769e-05)
(1.01235 0.0286767 -0.00195605)
(1.03406 0.0569741 0.00474276)
(1.10293 0.0657408 0.00374192)
(1.10493 0.0188986 -0.00561756)
(1.12325 -0.0385512 -0.00595468)
(1.06984 -0.042098 -0.00411564)
(1.05041 -0.0749752 0.000834658)
(1.02079 -0.0876864 0.0075906)
(0.990227 -0.113771 0.00377962)
(0.906407 -0.0787364 -0.0188408)
(0.790249 0.0725573 0.0559461)
(0.861437 0.040444 0.0784238)
(0.854767 0.032707 0.0587804)
(0.861494 0.0615112 0.0399403)
(0.971334 -0.037218 0.0202136)
(0.991775 -0.0252083 0.028862)
(1.05006 -0.094307 -0.00266171)
(0.913349 -0.005385 -0.0252064)
(0.910488 0.122798 -0.00415122)
(1.00663 0.0139138 -0.000491751)
(1.00236 -0.000901241 8.82768e-05)
(1.0292 0.033289 0.00169784)
(1.0597 0.0108516 0.000589095)
(1.08088 0.000134238 -0.00213822)
(1.08827 -0.0107833 -0.00220217)
(1.04841 -0.0325878 0.00118571)
(1.04078 -0.0286789 -0.000388972)
(0.977279 -0.056562 -0.0018011)
(0.946603 -0.0667139 0.0015752)
(0.848018 -0.100586 0.000651819)
(0.823843 -0.0532436 0.00681399)
(0.895699 -0.0263764 0.0152656)
(0.884291 -0.0248165 0.0148708)
(0.943989 0.0438184 0.00232165)
(0.961092 0.0226581 -0.000872636)
(0.90936 -0.00152871 -0.00333693)
(0.928356 -0.0458152 0.00745834)
(0.811669 -0.0231808 -0.00206959)
(0.914577 0.0406812 -0.0167783)
(1.00714 -0.000306293 -0.000147729)
(1.00427 0.0080858 0.000190131)
(1.02383 0.010035 0.000470876)
(1.05323 0.0169248 -0.000343755)
(1.05804 0.00409592 -0.000599604)
(1.07082 -0.00724655 -0.000245382)
(1.03399 -0.00343119 0.000166443)
(1.02641 -0.0135782 0.000146869)
(0.977218 -0.00526703 0.000255601)
(0.946986 -0.00472843 8.9608e-05)
(0.882388 0.010686 -0.000421819)
(0.84377 0.0466838 0.00235202)
(0.878507 0.0384891 0.00442877)
(0.865634 0.0275981 0.00490703)
(0.899642 0.0143346 -0.000862924)
(0.945342 0.000600177 0.00286028)
(0.920518 0.00463924 -0.00253972)
(0.95555 -0.00663723 0.00736663)
(0.848415 0.0103126 -0.00472184)
(0.943433 0.0302061 -0.0203464)
(0.985379 -0.000438913 -1.39928e-05)
(1.02149 -0.00822485 -3.86617e-05)
(1.03325 -0.0157734 0.000185526)
(1.05561 -0.0124675 -5.59864e-05)
(1.06464 -0.00591485 -8.48694e-05)
(1.0425 -0.018056 -0.000151062)
(1.06175 -0.00323595 3.82611e-05)
(1.01861 -0.00761478 0.000179861)
(1.02094 -0.0214503 -8.41822e-05)
(1.00069 -0.00334636 0.000155903)
(1.00411 -0.00970989 -0.000360944)
(1.00747 -0.0154968 -0.000182464)
(0.949644 -0.00516571 0.000292706)
(0.959189 -0.00810906 0.000525687)
(0.921236 -0.0425114 -0.0055568)
(1.01886 -0.0549187 -0.00579966)
(1.01997 -0.0477266 -0.00292311)
(1.01857 -0.0512841 -0.00285353)
(1.05871 -0.0260044 -0.00131243)
(1.04443 -0.010251 -0.000389658)
(0.984594 -0.00634332 6.42826e-06)
(1.02132 -0.0326934 -0.000122807)
(1.03339 -0.0104327 0.000331518)
(1.0757 -0.00983966 0.000113054)
(1.07183 0.0193737 -0.000471307)
(1.05159 0.023621 -0.000327548)
(1.07966 0.0252409 7.28575e-05)
(1.00464 0.0362995 0.000673264)
(1.03017 0.0351277 -0.000721669)
(1.02065 0.0216434 0.00116763)
(1.00881 0.00244404 -0.000458145)
(1.02576 0.0567236 -0.00212705)
(0.959016 0.0442985 0.000686763)
(0.936447 0.0306342 0.000248351)
(0.859846 -0.0487593 -0.0148585)
(0.994755 -0.0544346 -0.0139554)
(1.0116 0.0317798 -0.00539555)
(1.03455 -0.0021221 -0.00605148)
(1.11166 -0.00597115 -0.00383588)
(1.06191 0.0172868 -0.0012404)
(0.976884 -0.00581953 9.53066e-05)
(1.03868 -0.0539347 -0.00061079)
(1.06146 -0.0599579 0.00149744)
(1.1115 -0.045887 -0.0012562)
(1.12695 0.0163935 5.36356e-05)
(1.06661 -0.0312621 -0.00160362)
(1.05942 0.0404567 0.000160292)
(1.0381 0.0247706 0.000392201)
(1.04648 -0.0452136 0.000313905)
(1.02594 0.0284488 0.00176117)
(1.02624 -0.0132973 -0.00686774)
(1.02121 0.000139863 0.00320464)
(0.979884 0.0762644 0.00841803)
(0.976711 0.0893018 -0.023416)
(0.764219 -0.212423 -0.0353175)
(0.871791 -0.277507 -0.0159992)
(0.960457 -0.115234 -0.0122683)
(0.933394 -0.188961 -0.0170278)
(1.03844 -0.0692997 -0.00948264)
(1.06261 0.0232818 -0.00353711)
(0.97031 -0.0224325 0.000665307)
(1.05205 -0.103747 0.0017412)
(1.06705 -0.0501847 -0.000928327)
(1.17558 -0.0557221 -0.000717358)
(1.15666 0.0593073 -0.0017237)
(1.11127 0.07174 -0.00455233)
(1.12233 0.0480809 0.00362888)
(0.995313 0.0466338 0.000183977)
(1.06775 0.0473701 -0.00217809)
(1.12384 0.0663389 0.0111637)
(1.05639 -0.0432337 -0.00463053)
(1.12694 0.115214 -0.0163714)
(1.01326 0.145569 -0.0159063)
(0.791026 0.0239878 -0.0202233)
(0.491256 -0.258921 0.0065892)
(0.589645 -0.350102 0.0140528)
(0.744885 -0.118927 -0.00521375)
(0.741048 -0.217453 0.00373255)
(1.05876 -0.194315 0.0102523)
(1.13089 -0.0370945 0.00347805)
(0.972027 -0.0254283 -0.00168761)
(1.10029 -0.133066 0.0110164)
(1.14605 -0.150628 -0.00102532)
(1.19772 -0.13566 -0.0132698)
(1.32996 0.0672773 -0.0121535)
(1.18122 -0.0612255 0.0012763)
(1.18121 0.148742 -0.00112129)
(1.01152 0.0605394 -0.00806893)
(1.06232 -0.18973 -0.000685173)
(1.29648 0.139055 -0.027152)
(1.0073 -0.0413343 -0.0233459)
(0.976482 -0.153431 0.0726098)
(1.33543 0.262556 0.0354657)
(1.23526 0.4158 -0.0538134)
(0.688218 -0.132635 -0.039155)
(0.434965 -0.472894 -0.00373641)
(0.558926 -0.364748 -0.006447)
(0.507672 -0.499794 0.00939041)
(0.831846 -0.300478 0.0157366)
(0.934507 -0.011153 0.00841199)
(1.04303 -0.1199 0.00196916)
(1.07398 -0.13957 0.000235074)
(1.0625 -0.0915585 0.0183443)
(1.42819 -0.208503 -0.0275332)
(1.39586 -0.0217383 -0.0111991)
(1.61575 0.139303 -0.0128104)
(1.31782 0.1449 -0.0455859)
(0.795943 0.0700221 0.0521848)
(0.882109 -0.196793 -0.0503826)
(1.19098 0.0480835 -0.0480149)
(1.33239 0.0311694 0.0286928)
(1.44817 0.357764 -0.00303158)
(0.996495 0.276305 -0.0903152)
(0.52343 -0.0181419 0.0227603)
(0.438763 -0.0994284 0.180173)
(0.449384 -0.244318 0.123097)
(0.54846 -0.192248 0.0411181)
(0.45799 -0.322783 0.0251637)
(0.731078 -0.356687 -0.00967135)
(0.99978 -0.0207338 -0.00560082)
(1.02831 -0.128165 -0.0269937)
(1.13298 -0.136402 0.0327748)
(1.34476 -0.366603 -0.00285977)
(1.50464 -0.410381 0.0283984)
(1.65079 -0.129005 -0.00441195)
(1.62381 -0.0159116 -0.0554978)
(0.983299 0.492259 0.0875074)
(1.37608 0.508983 -0.0690685)
(0.257192 -0.929107 -0.110594)
(0.769347 -0.430704 0.0178543)
(1.03039 -0.0864991 0.0949838)
(1.35319 0.169098 -0.0206014)
(1.08312 0.357155 -0.102805)
(0.761671 0.582298 0.0893714)
(1.13842 0.703001 0.194479)
(0.976635 0.233545 0.0261325)
(0.593498 -0.0424019 -0.00743531)
(0.62337 -0.403829 0.0171526)
(0.811353 -0.74927 -0.0342598)
(1.04099 -0.208551 -0.0298434)
(0.918125 -0.321048 -0.0173844)
(1.26637 -0.213467 -0.00517261)
(1.93402 -0.625022 -0.0795943)
(2.02637 -0.59701 -0.0178142)
(2.01311 0.218691 -0.0155975)
(2.07302 0.71476 0.0230597)
(2.11563 0.82308 0.00389088)
(0.946624 0.359376 -0.162716)
(-0.237512 -0.879644 0.161002)
(0.360521 -0.705806 0.0524172)
(0.651806 -0.0835196 -0.086334)
(1.03573 0.295653 -0.00145407)
(1.48264 -0.0156049 0.0802746)
(1.55683 0.107538 -0.0143876)
(1.41508 0.602263 -0.0684571)
(1.00092 0.162278 -0.0427012)
(0.778453 -0.0407689 0.00948205)
(1.03938 -0.332303 0.0543519)
(1.05335 -1.01024 0.0157205)
(0.998938 -0.482591 -0.0329408)
(1.08404 -0.229183 -0.00497871)
(1.0154 -0.809739 -0.0978837)
(1.62007 -1.32966 -0.138017)
(0.87225 0.47141 0.232673)
(-0.0960133 0.505088 -0.0157545)
(-0.271532 -0.333253 0.158491)
(0.0426898 -0.977671 0.12908)