/*--------------------------------*- C++ -*----------------------------------*\
  =========                 |
  \\      /  F ield         | OpenFOAM: The Open Source CFD Toolbox
   \\    /   O peration     | Website:  https://openfoam.org
    \\  /    A nd           | Version:  8
     \\/     M anipulation  |
\*---------------------------------------------------------------------------*/
FoamFile
{
    version     2.0;
    format      ascii;
    class       volScalarField;
    location    "44.5";
    object      p;
}
// * * * * * * * * * * * * * * * * * * * * * * * * * * * * * * * * * * * * * //

dimensions      [0 2 -2 0 0 0 0];

internalField   nonuniform List<scalar> 
11600
(
-1.5662e-07
-8.20832e-07
-5.41918e-07
1.48977e-07
1.45585e-06
3.32402e-06
5.7454e-06
8.71397e-06
1.22262e-05
1.6282e-05
2.08826e-05
2.60296e-05
3.17247e-05
3.79694e-05
4.47658e-05
5.21161e-05
6.00227e-05
6.8488e-05
7.75148e-05
8.71056e-05
9.72632e-05
0.00010799
0.00011929
0.000131163
0.000143614
0.000156643
0.000170254
0.000184446
0.000199223
0.000214585
0.000230532
0.000247065
0.000264183
0.000281885
0.000300169
0.000319032
0.000338472
0.000358482
0.000379058
0.000400193
0.000421877
0.0004441
0.00046685
0.000490115
0.000513876
0.000538115
0.00056281
0.000587932
0.000613447
0.000639313
0.000665471
0.000691842
0.000718306
0.000744666
0.000770527
0.000795461
0.000820073
0.000834078
0.000870954
0.000834603
2.09587e-07
-3.65585e-07
6.59472e-08
8.33822e-07
2.18432e-06
4.07313e-06
6.50267e-06
9.47545e-06
1.29911e-05
1.70496e-05
2.16523e-05
2.68009e-05
3.24976e-05
3.87441e-05
4.55425e-05
5.28949e-05
6.08035e-05
6.92709e-05
7.82998e-05
8.78929e-05
9.80529e-05
0.000108782
0.000120084
0.00013196
0.000144413
0.000157445
0.000171058
0.000185253
0.000200032
0.000215397
0.000231347
0.000247882
0.000265003
0.000282708
0.000300995
0.000319862
0.000339305
0.00035932
0.000379901
0.00040104
0.000422731
0.000444961
0.000467721
0.000490997
0.000514772
0.000539031
0.000563749
0.000588904
0.000614463
0.00064039
0.000666639
0.000693151
0.00071985
0.000746626
0.000773361
0.00080004
0.0008266
0.000851119
0.000886913
0.000906462
-2.70081e-07
-9.34307e-07
-4.76655e-07
2.9542e-07
1.65519e-06
3.55061e-06
5.98316e-06
8.95663e-06
1.2472e-05
1.653e-05
2.11316e-05
2.62786e-05
3.19729e-05
3.82167e-05
4.50121e-05
5.23614e-05
6.02669e-05
6.87311e-05
7.77568e-05
8.73467e-05
9.75036e-05
0.00010823
0.000119529
0.000131402
0.000143853
0.000156882
0.000170493
0.000184687
0.000199466
0.00021483
0.00023078
0.000247318
0.000264441
0.00028215
0.000300442
0.000319316
0.000338767
0.000358792
0.000379385
0.000400539
0.000422247
0.000444498
0.000467282
0.000490587
0.000514397
0.000538697
0.000563466
0.000588681
0.000614315
0.000640337
0.00066671
0.000693385
0.000720305
0.000747396
0.000774601
0.000801939
0.000829377
0.000856831
0.000890978
0.000916601
-1.17186e-06
-1.88474e-06
-1.39885e-06
-6.16511e-07
7.5586e-07
2.66056e-06
5.09858e-06
8.07414e-06
1.15893e-05
1.56457e-05
2.02451e-05
2.53891e-05
3.10798e-05
3.73193e-05
4.41101e-05
5.14546e-05
5.93551e-05
6.78143e-05
7.68351e-05
8.642e-05
9.6572e-05
0.000107294
0.000118588
0.000130457
0.000142904
0.00015593
0.000169538
0.00018373
0.000198508
0.000213872
0.000229824
0.000246364
0.000263492
0.000281208
0.000299508
0.000318393
0.000337857
0.000357898
0.000378511
0.000399688
0.000421423
0.000443707
0.00046653
0.00048988
0.000513744
0.000538107
0.000562952
0.000588261
0.000614012
0.000640184
0.000666755
0.000693703
0.000721013
0.000748686
0.00077677
0.000805381
0.00083472
0.000865429
0.000899494
0.00093314
-2.74574e-06
-3.48866e-06
-2.99022e-06
-2.20645e-06
-8.3011e-07
1.07738e-06
3.51692e-06
6.49233e-06
1.00055e-05
1.40585e-05
1.86533e-05
2.37919e-05
2.94764e-05
3.57091e-05
4.24926e-05
4.98293e-05
5.77219e-05
6.61731e-05
7.51857e-05
8.47626e-05
9.49066e-05
0.000105621
0.000116907
0.00012877
0.00014121
0.000154231
0.000167834
0.000182023
0.000196798
0.000212162
0.000228115
0.000244658
0.000261792
0.000279516
0.000297828
0.000316726
0.000336209
0.000356272
0.000376911
0.00039812
0.000419892
0.000442219
0.000465093
0.000488501
0.000512434
0.000536877
0.000561816
0.000587236
0.00061312
0.000639453
0.000666221
0.000693414
0.000721032
0.000749094
0.000777655
0.000806826
0.00083681
0.000868117
0.000901346
0.000935571
-4.95472e-06
-5.71347e-06
-5.20882e-06
-4.42461e-06
-3.04667e-06
-1.13909e-06
1.29941e-06
4.27252e-06
7.78197e-06
1.18297e-05
1.64178e-05
2.15487e-05
2.72246e-05
3.34481e-05
4.02215e-05
4.75478e-05
5.54295e-05
6.38697e-05
7.28712e-05
8.24369e-05
9.257e-05
0.000103273
0.00011455
0.000126403
0.000138834
0.000151847
0.000165444
0.000179628
0.0001944
0.000209762
0.000225717
0.000242264
0.000259405
0.000277139
0.000295465
0.000314381
0.000333886
0.000353977
0.000374649
0.000395897
0.000417715
0.000440097
0.000463032
0.000486513
0.000510529
0.000535067
0.000560116
0.000585664
0.000611697
0.000638205
0.00066518
0.000692621
0.000720538
0.000748959
0.000777944
0.000807589
0.000838059
0.000869615
0.000902406
0.000936291
-7.79791e-06
-8.56323e-06
-8.05668e-06
-7.27287e-06
-5.89492e-06
-3.98905e-06
-1.55375e-06
1.41484e-06
4.91834e-06
8.95867e-06
1.35381e-05
1.86589e-05
2.43238e-05
3.05352e-05
3.7296e-05
4.46088e-05
5.24768e-05
6.09028e-05
6.989e-05
7.94415e-05
8.95605e-05
0.00010025
0.000111514
0.000123354
0.000135774
0.000148777
0.000162366
0.000176542
0.00019131
0.000206671
0.000222627
0.000239178
0.000256327
0.000274073
0.000292415
0.000311353
0.000330884
0.000351008
0.000371719
0.000393014
0.000414887
0.000437332
0.000460341
0.000483905
0.000508016
0.000532664
0.000557837
0.000583524
0.000609717
0.000636406
0.000663588
0.000691262
0.000719439
0.000748144
0.000777419
0.000807331
0.000837976
0.000869471
0.000901835
0.000934989
-1.12749e-05
-1.20417e-05
-1.15357e-05
-1.07536e-05
-9.37739e-06
-7.47482e-06
-5.0445e-06
-2.08252e-06
1.41284e-06
5.44352e-06
1.00118e-05
1.51203e-05
2.07714e-05
2.69681e-05
3.37132e-05
4.10096e-05
4.88604e-05
5.7269e-05
6.62386e-05
7.57724e-05
8.5874e-05
9.65467e-05
0.000107794
0.000119619
0.000132025
0.000145015
0.000158593
0.000172761
0.000187523
0.000202881
0.000218837
0.000235393
0.00025255
0.000270309
0.000288669
0.000307631
0.000327193
0.000347354
0.00036811
0.000389458
0.000411394
0.000433911
0.000457003
0.000480663
0.000504881
0.00052965
0.000554959
0.000580798
0.000607161
0.000634037
0.000661425
0.000689322
0.000717735
0.000746679
0.00077618
0.000806271
0.000836996
0.000868383
0.000900396
0.000932923
-1.5384e-05
-1.61496e-05
-1.5645e-05
-1.48656e-05
-1.34928e-05
-1.15952e-05
-9.17159e-06
-6.21818e-06
-2.73315e-06
1.28555e-06
5.8403e-06
1.09337e-05
1.65684e-05
2.27474e-05
2.94736e-05
3.67503e-05
4.45807e-05
5.29683e-05
6.19167e-05
7.14294e-05
8.151e-05
9.2162e-05
0.000103389
0.000115195
0.000127584
0.000140559
0.000154124
0.000168282
0.000183036
0.000198389
0.000214344
0.000230903
0.000248069
0.000265841
0.000284221
0.00030321
0.000322806
0.000343008
0.000363814
0.000385222
0.000407227
0.000429825
0.000453009
0.000476774
0.000501111
0.000526012
0.000551469
0.000577473
0.000604014
0.000631087
0.000658684
0.000686802
0.000715442
0.000744608
0.000774308
0.000804552
0.000835342
0.000866662
0.000898442
0.000930553
-2.01225e-05
-2.08863e-05
-2.03832e-05
-1.96071e-05
-1.82392e-05
-1.63482e-05
-1.39332e-05
-1.09903e-05
-7.51778e-06
-3.51345e-06
1.02517e-06
6.10074e-06
1.17161e-05
1.78742e-05
2.45783e-05
3.18317e-05
3.96381e-05
4.80011e-05
5.69245e-05
6.64121e-05
7.64678e-05
8.70954e-05
9.8299e-05
0.000110083
0.000122451
0.000135407
0.000148955
0.000163099
0.000177843
0.00019319
0.000209142
0.000225704
0.000242877
0.000260664
0.000279064
0.000298081
0.000317713
0.00033796
0.00035882
0.000380293
0.000402375
0.000425061
0.000448347
0.000472226
0.000496693
0.000521738
0.000547355
0.000573535
0.000600268
0.000627547
0.000655363
0.000683709
0.00071258
0.000741969
0.000771872
0.000802277
0.000833164
0.000864488
0.000896167
0.000928068
-2.54874e-05
-2.62498e-05
-2.57487e-05
-2.49763e-05
-2.36146e-05
-2.17318e-05
-1.93272e-05
-1.63969e-05
-1.29392e-05
-8.95169e-06
-4.43191e-06
6.22926e-07
6.21572e-06
1.23496e-05
1.9028e-05
2.62546e-05
3.40331e-05
4.23676e-05
5.1262e-05
6.07204e-05
7.07469e-05
8.13459e-05
9.25217e-05
0.000104279
0.000116622
0.000129556
0.000143084
0.000157211
0.000171942
0.000187279
0.000203227
0.000219789
0.000236969
0.000254768
0.00027319
0.000292235
0.000311905
0.000332199
0.000353118
0.000374661
0.000396825
0.000419606
0.000443001
0.000467005
0.000491612
0.000516814
0.000542603
0.000568972
0.00059591
0.000623409
0.000651458
0.000680047
0.000709163
0.000738793
0.000768921
0.000799522
0.00083056
0.000861976
0.000893683
0.000925552
-3.14762e-05
-3.22374e-05
-3.17391e-05
-3.09712e-05
-2.96166e-05
-2.77437e-05
-2.53513e-05
-2.24358e-05
-1.89952e-05
-1.50272e-05
-1.05291e-05
-5.49812e-06
6.87731e-08
6.1749e-06
1.28239e-05
2.00197e-05
2.77663e-05
3.60681e-05
4.49291e-05
5.43539e-05
6.43467e-05
7.49123e-05
8.60557e-05
9.77819e-05
0.000110096
0.000123003
0.000136507
0.000150613
0.000165326
0.000180651
0.000196591
0.000213152
0.000230336
0.000248147
0.000266589
0.000285663
0.000305371
0.000325715
0.000346695
0.000368312
0.000390563
0.000413446
0.000436958
0.000461095
0.000485852
0.000511221
0.000537196
0.000563768
0.000590928
0.000618664
0.000646964
0.000675815
0.0007052
0.0007351
0.000765489
0.000796334
0.000827588
0.000859189
0.000891044
0.000923035
-3.80862e-05
-3.88463e-05
-3.83514e-05
-3.75889e-05
-3.62428e-05
-3.43813e-05
-3.20031e-05
-2.91046e-05
-2.56835e-05
-2.17377e-05
-1.72643e-05
-1.22605e-05
-6.72308e-06
-6.48468e-07
5.96718e-06
1.31281e-05
2.08385e-05
2.9103e-05
3.7926e-05
4.73122e-05
5.72664e-05
6.77937e-05
7.88997e-05
9.05899e-05
0.00010287
0.000115745
0.00012922
0.000143301
0.000157992
0.0001733
0.000189229
0.000205784
0.00022297
0.000240791
0.00025925
0.000278352
0.0002981
0.000318494
0.000339538
0.000361231
0.000383573
0.000406563
0.000430199
0.000454478
0.000479395
0.000504943
0.000531117
0.000557908
0.000585305
0.000613297
0.000641871
0.000671009
0.000700693
0.000730896
0.00076159
0.000792734
0.000824277
0.000856151
0.000888268
0.000920517
-4.53145e-05
-4.60731e-05
-4.55825e-05
-4.48264e-05
-4.34901e-05
-4.16416e-05
-3.92796e-05
-3.64003e-05
-3.30015e-05
-2.90807e-05
-2.46353e-05
-1.96622e-05
-1.41579e-05
-8.11877e-06
-1.54065e-06
5.58091e-06
1.32505e-05
2.14729e-05
3.02527e-05
3.95951e-05
4.95053e-05
5.9989e-05
7.10522e-05
8.27008e-05
9.49408e-05
0.000107778
0.000121219
0.000135269
0.000149934
0.000165219
0.000181132
0.000197678
0.000214862
0.000232689
0.000251164
0.000270293
0.000290078
0.000310523
0.00033163
0.000353402
0.000375838
0.00039894
0.000422706
0.000447134
0.00047222
0.000497959
0.000524345
0.000551369
0.000579022
0.000607292
0.000636163
0.000665617
0.000695631
0.000726179
0.000757226
0.000788729
0.000820633
0.000852869
0.000885351
0.000917975
-5.31577e-05
-5.39147e-05
-5.34288e-05
-5.26802e-05
-5.13551e-05
-4.95213e-05
-4.71776e-05
-4.43199e-05
-4.0946e-05
-3.70535e-05
-3.26394e-05
-2.77005e-05
-2.22334e-05
-1.6234e-05
-9.69785e-06
-2.62034e-06
5.0034e-06
1.31783e-05
2.19096e-05
3.12025e-05
4.1063e-05
5.14971e-05
6.25113e-05
7.41122e-05
8.63062e-05
9.90999e-05
0.0001125
0.000126512
0.000141145
0.000156403
0.000172294
0.000188825
0.000206002
0.000223831
0.000242319
0.00026147
0.000281291
0.000301785
0.000322956
0.000344807
0.00036734
0.000390556
0.000414457
0.00043904
0.000464304
0.000490244
0.000516854
0.000544128
0.000572055
0.000600623
0.000629817
0.000659617
0.000689998
0.000720933
0.000752384
0.000784306
0.000816643
0.000849325
0.00088227
0.000915378
-6.16118e-05
-6.23671e-05
-6.18866e-05
-6.11464e-05
-5.9834e-05
-5.80168e-05
-5.56935e-05
-5.28599e-05
-4.95138e-05
-4.56527e-05
-4.12735e-05
-3.63729e-05
-3.09471e-05
-2.49918e-05
-1.85024e-05
-1.1474e-05
-3.90157e-06
4.22027e-06
1.2897e-05
2.21344e-05
3.19389e-05
4.2317e-05
5.32756e-05
6.48219e-05
7.69629e-05
8.97058e-05
0.000103058
0.000117026
0.000131619
0.000146843
0.000162706
0.000179216
0.00019638
0.000214206
0.000232701
0.000251871
0.000271724
0.000292264
0.000313496
0.000335426
0.000358056
0.00038139
0.000405428
0.000430173
0.000455621
0.000481771
0.000508619
0.000536156
0.000564376
0.000593264
0.000622806
0.000652982
0.000683768
0.000715133
0.00074704
0.000779441
0.000812281
0.000845491
0.00087899
0.000912683
-7.06724e-05
-7.1426e-05
-7.09516e-05
-7.02209e-05
-6.89227e-05
-6.71239e-05
-6.48232e-05
-6.20164e-05
-5.87012e-05
-5.48749e-05
-5.05344e-05
-4.5676e-05
-4.02959e-05
-3.43895e-05
-2.7952e-05
-2.09782e-05
-1.34628e-05
-5.40018e-06
3.21566e-06
1.2391e-05
2.21327e-05
3.24477e-05
4.33434e-05
5.48276e-05
6.69079e-05
7.95923e-05
9.28887e-05
0.000106805
0.00012135
0.000136532
0.000152359
0.000168841
0.000185985
0.000203801
0.000222297
0.000241481
0.00026136
0.000281942
0.000303232
0.000325238
0.000347964
0.000371415
0.000395594
0.000420503
0.000446142
0.000472511
0.000499606
0.000527421
0.00055595
0.00058518
0.000615096
0.000645679
0.000676905
0.000708744
0.000741157
0.000774098
0.00080751
0.000841325
0.000875465
0.000909838
-8.03349e-05
-8.10869e-05
-8.06193e-05
-7.98991e-05
-7.86166e-05
-7.68381e-05
-7.45624e-05
-7.17852e-05
-6.8504e-05
-6.47161e-05
-6.04182e-05
-5.56064e-05
-5.02766e-05
-4.44241e-05
-3.80439e-05
-3.11306e-05
-2.36785e-05
-1.56816e-05
-7.13342e-06
1.97275e-06
1.16441e-05
2.18884e-05
3.27133e-05
4.41272e-05
5.61385e-05
6.87557e-05
8.19877e-05
9.58434e-05
0.000110332
0.000125463
0.000141246
0.00015769
0.000174807
0.000192605
0.000211094
0.000230284
0.000250183
0.0002708
0.000292143
0.000314221
0.00033704
0.000360607
0.000384925
0.000410001
0.000435835
0.000462428
0.00048978
0.000517886
0.000546739
0.00057633
0.000606644
0.000637665
0.000669367
0.000701722
0.000734691
0.000768228
0.000802278
0.000836774
0.000871639
0.000906783
-9.05942e-05
-9.13446e-05
-9.08846e-05
-9.0176e-05
-8.89106e-05
-8.71546e-05
-8.49063e-05
-8.21615e-05
-7.89177e-05
-7.51719e-05
-7.09207e-05
-6.616e-05
-6.08855e-05
-5.50923e-05
-4.87752e-05
-4.19286e-05
-3.45463e-05
-2.66221e-05
-1.81489e-05
-9.11962e-06
4.73533e-07
1.06386e-05
2.13841e-05
3.27188e-05
4.46519e-05
5.71926e-05
7.03505e-05
8.41355e-05
9.85577e-05
0.000113628
0.000129356
0.000145754
0.000162833
0.000180603
0.000199076
0.000218262
0.000238172
0.000258817
0.000280206
0.00030235
0.000325257
0.000348935
0.000373392
0.000398634
0.000424664
0.000451486
0.000479101
0.000507507
0.000536699
0.000566668
0.000597404
0.000628889
0.000661102
0.000694012
0.000727585
0.000761774
0.000796526
0.000831776
0.000867448
0.000903453
-0.000101445
-0.000102194
-0.000101742
-0.000101046
-9.97995e-05
-9.80679e-05
-9.58496e-05
-9.31403e-05
-8.99373e-05
-8.62375e-05
-8.20372e-05
-7.73324e-05
-7.21184e-05
-6.63902e-05
-6.01424e-05
-5.3369e-05
-4.60636e-05
-3.82194e-05
-2.98291e-05
-2.08849e-05
-1.13786e-05
-1.30169e-06
9.35498e-06
2.06008e-05
3.24456e-05
4.48995e-05
5.79727e-05
7.16761e-05
8.60208e-05
0.000101018
0.000116681
0.000133021
0.00015005
0.000167782
0.000186227
0.000205399
0.00022531
0.000245972
0.000267398
0.0002896
0.000312587
0.000336371
0.000360961
0.000386366
0.000412592
0.000439644
0.000467527
0.000496239
0.00052578
0.000556144
0.00058732
0.000619296
0.000652049
0.000685554
0.000719775
0.000754669
0.000790185
0.000826259
0.000862816
0.000899769
-0.000112881
-0.000113628
-0.000113186
-0.000112503
-0.000111277
-0.000109572
-0.000107386
-0.000104716
-0.000101557
-9.79074e-05
-9.37628e-05
-8.91188e-05
-8.39709e-05
-7.83137e-05
-7.21416e-05
-6.54484e-05
-5.82273e-05
-5.0471e-05
-4.21719e-05
-3.33216e-05
-2.39114e-05
-1.39323e-05
-3.37453e-06
7.77196e-06
1.95176e-05
3.18733e-05
4.48501e-05
5.84598e-05
7.27148e-05
8.76278e-05
0.000103212
0.000119481
0.000136448
0.000154127
0.000172532
0.000191676
0.000211576
0.000232244
0.000253695
0.000275943
0.000299001
0.000322882
0.000347597
0.000373159
0.000399576
0.000426857
0.000455008
0.000484031
0.000513929
0.000544698
0.000576333
0.00060882
0.000642142
0.000676275
0.000711186
0.000746837
0.000783175
0.00082014
0.000857658
0.000895645
-0.000124897
-0.000125642
-0.000125209
-0.000124542
-0.000123337
-0.000121661
-0.000119511
-0.000116882
-0.000113771
-0.000110176
-0.000106092
-0.000101514
-9.64378e-05
-9.0858e-05
-8.47685e-05
-7.81628e-05
-7.10337e-05
-6.33737e-05
-5.51745e-05
-4.64275e-05
-3.71234e-05
-2.72524e-05
-1.68044e-05
-5.7686e-06
5.86606e-06
1.81112e-05
3.09788e-05
4.44817e-05
5.86334e-05
7.34478e-05
8.89394e-05
0.000105123
0.000122013
0.000139624
0.000157974
0.000177076
0.000196949
0.000217608
0.00023907
0.000261351
0.000284466
0.000308432
0.000333263
0.000358972
0.000385574
0.000413077
0.000441493
0.000470828
0.000501086
0.000532269
0.000564373
0.00059739
0.000631304
0.000666096
0.000701737
0.000738189
0.000775404
0.000813324
0.000851878
0.000890982
-0.000137484
-0.000138227
-0.000137804
-0.000137153
-0.000135973
-0.000134328
-0.000132216
-0.000129632
-0.000126574
-0.000123037
-0.000119018
-0.000114512
-0.000109514
-0.000104018
-9.80181e-05
-9.15075e-05
-8.44788e-05
-7.69238e-05
-6.8834e-05
-6.02001e-05
-5.10125e-05
-4.12608e-05
-3.09342e-05
-2.00213e-05
-8.5104e-06
3.6108e-06
1.63554e-05
2.97372e-05
4.37708e-05
5.84714e-05
7.38544e-05
8.99359e-05
0.000106732
0.00012426
0.000142537
0.00016158
0.000181409
0.000202042
0.000223498
0.000245795
0.000268952
0.000292987
0.000317919
0.000343763
0.000370536
0.000398253
0.000426927
0.000456569
0.000487187
0.000518787
0.000551369
0.000584927
0.000619453
0.00065493
0.000691333
0.000728628
0.000766771
0.000805707
0.000845368
0.000885671
-0.000150635
-0.000151376
-0.000150965
-0.000150331
-0.000149177
-0.000147565
-0.000145494
-0.000142959
-0.000139956
-0.000136483
-0.000132535
-0.000128106
-0.000123193
-0.000117788
-0.000111885
-0.000105478
-9.85577e-05
-9.1117e-05
-8.31464e-05
-7.46363e-05
-6.55763e-05
-5.59556e-05
-4.57628e-05
-3.49859e-05
-2.36126e-05
-1.16297e-05
9.76944e-07
1.42221e-05
2.81215e-05
4.26914e-05
5.79486e-05
7.39103e-05
9.05943e-05
0.000108019
0.000126204
0.000145169
0.000164935
0.000185522
0.000206951
0.000229245
0.000252424
0.00027651
0.000301523
0.000327485
0.000354414
0.00038233
0.000411251
0.000441191
0.000472163
0.000504177
0.000537238
0.000571346
0.000606497
0.000642679
0.000679871
0.000718046
0.000757163
0.000797171
0.000838006
0.000879587
-0.000164342
-0.000165081
-0.000164682
-0.000164067
-0.00016294
-0.000161364
-0.000159337
-0.000156854
-0.000153912
-0.000150507
-0.000146635
-0.00014229
-0.000137467
-0.00013216
-0.000126363
-0.000120067
-0.000113265
-0.000105948
-9.81075e-05
-8.97321e-05
-8.08115e-05
-7.13343e-05
-6.12886e-05
-5.06617e-05
-3.94407e-05
-2.76114e-05
-1.51588e-05
-2.067e-06
1.16807e-05
2.61016e-05
4.12139e-05
5.7036e-05
7.35874e-05
9.08885e-05
0.00010896
0.000127825
0.000147504
0.000168023
0.000189403
0.00021167
0.000234847
0.00025896
0.000284034
0.000310091
0.000337156
0.000365253
0.000394403
0.000424626
0.00045594
0.000488359
0.000521895
0.000556554
0.000592336
0.000629236
0.000667239
0.000706323
0.000746454
0.000787584
0.000829655
0.000872591
-0.000178595
-0.000179332
-0.000178946
-0.000178351
-0.000177254
-0.000175717
-0.000173737
-0.00017131
-0.000168433
-0.000165101
-0.00016131
-0.000157055
-0.00015233
-0.000147129
-0.000141445
-0.000135269
-0.000128595
-0.000121412
-0.000113712
-0.000105483
-9.67143e-05
-8.73938e-05
-7.75091e-05
-6.70471e-05
-5.59939e-05
-4.43346e-05
-3.20532e-05
-1.91328e-05
-5.55578e-06
8.6964e-06
2.3643e-05
3.9304e-05
5.57006e-05
7.28548e-05
9.07895e-05
0.000109529
0.000129097
0.00014952
0.000170825
0.000193038
0.000216187
0.000240301
0.000265407
0.000291533
0.000318709
0.000346961
0.000376317
0.000406802
0.000438439
0.000471249
0.000505248
0.00054045
0.000576863
0.000614486
0.000653313
0.000693328
0.000734505
0.000776802
0.000820165
0.000864524
-0.000193386
-0.000194121
-0.000193749
-0.000193175
-0.00019211
-0.000190613
-0.000188684
-0.000186317
-0.000183509
-0.000180256
-0.000176552
-0.000172394
-0.000167774
-0.000162686
-0.000157123
-0.000151077
-0.00014454
-0.000137502
-0.000129954
-0.000121884
-0.00011328
-0.00010413
-9.44211e-05
-8.41396e-05
-7.32708e-05
-6.17988e-05
-4.97069e-05
-3.69772e-05
-2.35911e-05
-9.52908e-06
5.22946e-06
2.07061e-05
3.69235e-05
5.39053e-05
7.16765e-05
9.02629e-05
0.000109692
0.000129991
0.00015119
0.000173319
0.000196409
0.000220491
0.000245598
0.000271762
0.000299016
0.000327393
0.000356926
0.000387645
0.000419579
0.000452755
0.000487198
0.000522929
0.000559961
0.000598304
0.000637959
0.000678919
0.000721163
0.000764662
0.000809367
0.000855213
-0.000208704
-0.000209436
-0.000209079
-0.000208529
-0.000207497
-0.000206044
-0.000204169
-0.000201866
-0.000199131
-0.000195962
-0.000192351
-0.000188296
-0.000183788
-0.000178821
-0.000173389
-0.000167482
-0.000161093
-0.000154211
-0.000146827
-0.000138928
-0.000130502
-0.000121538
-0.00011202
-0.000101936
-9.12687e-05
-8.00024e-05
-6.81194e-05
-5.56009e-05
-4.24275e-05
-2.85785e-05
-1.4032e-05
1.23499e-06
1.72467e-05
3.40286e-05
5.16073e-05
7.00108e-05
8.92686e-05
0.000109411
0.000130471
0.000152482
0.000175476
0.000199491
0.000224562
0.000250726
0.000278022
0.000306487
0.000336159
0.000367076
0.000399272
0.000432784
0.000467642
0.000503875
0.000541507
0.000580556
0.000621032
0.000662938
0.000706264
0.000750988
0.000797072
0.000844461
-0.000224538
-0.000225268
-0.000224926
-0.0002244
-0.000223404
-0.000221998
-0.00022018
-0.000217945
-0.000215289
-0.000212208
-0.000208698
-0.000204751
-0.000200363
-0.000195526
-0.000190233
-0.000184476
-0.000178245
-0.000171531
-0.000164323
-0.000156608
-0.000148375
-0.000139611
-0.000130301
-0.000120431
-0.000109984
-9.89426e-05
-8.72891e-05
-7.50037e-05
-6.20661e-05
-4.84544e-05
-3.41456e-05
-1.91153e-05
-3.33772e-06
1.32142e-05
3.05689e-05
4.87568e-05
6.78094e-05
8.77602e-05
0.000108644
0.000130497
0.000153356
0.000177262
0.000202255
0.000228376
0.00025567
0.000284178
0.000313945
0.000345015
0.000377432
0.000411237
0.00044647
0.00048317
0.00052137
0.000561098
0.000602376
0.000645217
0.000689624
0.000735585
0.000783075
0.000832049
-0.000240876
-0.000241604
-0.000241279
-0.000240779
-0.000239821
-0.000238464
-0.000236707
-0.000234544
-0.000231971
-0.000228985
-0.00022558
-0.00022175
-0.000217489
-0.000212791
-0.000207647
-0.000202049
-0.000195987
-0.000189452
-0.000182432
-0.000174916
-0.000166891
-0.000158343
-0.000149257
-0.000139619
-0.000129411
-0.000118615
-0.000107213
-9.51839e-05
-8.25065e-05
-6.91579e-05
-5.51141e-05
-4.03493e-05
-2.48364e-05
-8.54674e-06
8.55024e-06
2.64868e-05
4.52969e-05
6.50164e-05
8.56827e-05
0.000107335
0.000130015
0.000153766
0.000178633
0.000204662
0.000231902
0.000260402
0.000290212
0.000321383
0.000353966
0.000388012
0.000423571
0.00046069
0.000499413
0.00053978
0.000581826
0.000625576
0.000671047
0.000718241
0.000767147
0.000817733
-0.000257707
-0.000258432
-0.000258125
-0.000257652
-0.000256734
-0.00025543
-0.000253737
-0.00025165
-0.000249165
-0.000246279
-0.000242986
-0.00023928
-0.000235154
-0.000230603
-0.000225617
-0.000220189
-0.000214308
-0.000207965
-0.000201147
-0.000193843
-0.00018604
-0.000177725
-0.000168881
-0.000159494
-0.000149545
-0.000139016
-0.000127887
-0.000116138
-0.000103747
-9.06885e-05
-7.69385e-05
-6.247e-05
-4.72543e-05
-3.12611e-05
-1.44583e-05
3.18864e-06
2.17157e-05
4.11612e-05
6.15653e-05
8.29705e-05
0.000105422
0.000128966
0.000153653
0.000179534
0.000206663
0.000235094
0.000264885
0.000296095
0.000328782
0.000363006
0.000398827
0.000436303
0.00047549
0.000516441
0.000559205
0.000603821
0.000650322
0.000698726
0.000749039
0.000801247
-0.000275017
-0.00027574
-0.000275451
-0.000275008
-0.000274132
-0.000272882
-0.000271257
-0.00026925
-0.000266859
-0.000264079
-0.000260904
-0.000257329
-0.000253347
-0.000248951
-0.000244134
-0.000238885
-0.000233197
-0.000227057
-0.000220455
-0.000213378
-0.000205814
-0.000197747
-0.000189164
-0.000180046
-0.000170377
-0.000160137
-0.000149306
-0.000137862
-0.000125783
-0.000113044
-9.96182e-05
-8.54782e-05
-7.05941e-05
-5.4934e-05
-3.84639e-05
-2.11477e-05
-2.94712e-06
1.61783e-05
3.62715e-05
5.73781e-05
7.95464e-05
0.000102827
0.000127275
0.000152945
0.000179898
0.000208193
0.000237895
0.000269071
0.000301787
0.000336114
0.000372121
0.000409878
0.000449454
0.000490916
0.000534328
0.000579747
0.000627222
0.000676792
0.000728481
0.000782295
-0.000292794
-0.000293513
-0.000293244
-0.000292831
-0.000291999
-0.000290808
-0.000289254
-0.000287332
-0.000285039
-0.00028237
-0.00027932
-0.000275883
-0.000272053
-0.000267822
-0.000263183
-0.000258125
-0.000252641
-0.000246718
-0.000240345
-0.00023351
-0.0002262
-0.0002184
-0.000210094
-0.000201267
-0.000191898
-0.00018197
-0.000171461
-0.000160349
-0.000148611
-0.00013622
-0.00012315
-0.000109373
-9.48565e-05
-7.95679e-05
-6.34715e-05
-4.65297e-05
-2.87022e-05
-9.94617e-06
9.78382e-06
3.05364e-05
5.23631e-05
7.53188e-05
9.94613e-05
0.000124852
0.000151555
0.000179638
0.000209171
0.00024023
0.00027289
0.000307231
0.000343332
0.000381278
0.00042115
0.000463032
0.000507003
0.000553139
0.000601509
0.000652173
0.000705178
0.000760556
-0.000311021
-0.000311738
-0.000311489
-0.000311107
-0.000310322
-0.000309192
-0.000307713
-0.000305881
-0.000303691
-0.000301139
-0.000298221
-0.00029493
-0.000291259
-0.000287202
-0.00028275
-0.000277895
-0.000272626
-0.000266932
-0.000260803
-0.000254225
-0.000247186
-0.00023967
-0.000231662
-0.000223144
-0.000214099
-0.000204506
-0.000194344
-0.00018359
-0.000172221
-0.00016021
-0.00014753
-0.00013415
-0.000120039
-0.000105163
-8.94833e-05
-7.2962e-05
-5.55568e-05
-3.72227e-05
-1.79119e-05
2.42708e-06
2.38488e-05
4.64116e-05
7.01774e-05
9.5212e-05
0.000121585
0.000149371
0.000178647
0.000209495
0.000242001
0.000276252
0.000312343
0.000350369
0.000390426
0.000432615
0.000477032
0.000523773
0.00057293
0.000624587
0.000678818
0.000735683
-0.000329685
-0.000330398
-0.000330171
-0.000329823
-0.000329087
-0.00032802
-0.00032662
-0.000324881
-0.000322799
-0.000320371
-0.000317591
-0.000314453
-0.00031095
-0.000307076
-0.000302822
-0.000298179
-0.000293138
-0.000287687
-0.000281815
-0.00027551
-0.000268757
-0.000261543
-0.000253852
-0.000245665
-0.000236965
-0.000227731
-0.000217942
-0.000207575
-0.000196605
-0.000185006
-0.000172749
-0.000159804
-0.000146138
-0.000131715
-0.000116498
-0.000100446
-8.35148e-05
-6.56582e-05
-4.68258e-05
-2.69641e-05
-6.01529e-06
1.60819e-05
3.93934e-05
6.39896e-05
8.99453e-05
0.000117341
0.00014626
0.000176792
0.000209032
0.000243079
0.000279037
0.000317016
0.000357127
0.000399486
0.00044421
0.000491418
0.000541223
0.000593739
0.000649068
0.000707302
-0.000348769
-0.000349479
-0.000349275
-0.000348961
-0.000348276
-0.000347276
-0.000345958
-0.000344317
-0.000342349
-0.000340049
-0.000337414
-0.000334436
-0.00033111
-0.000327428
-0.000323381
-0.000318962
-0.00031416
-0.000308965
-0.000303365
-0.000297348
-0.0002909
-0.000284006
-0.00027665
-0.000268815
-0.000260483
-0.000251633
-0.000242243
-0.00023229
-0.00022175
-0.000210595
-0.000198797
-0.000186325
-0.000173144
-0.000159219
-0.000144511
-0.000128979
-0.000112576
-9.52552e-05
-7.69641e-05
-5.76468e-05
-3.72433e-05
-1.56893e-05
7.08483e-06
3.11535e-05
5.65965e-05
8.34993e-05
0.000111953
0.000142054
0.000173905
0.000207616
0.000243303
0.000281088
0.000321099
0.000363469
0.000408336
0.000455839
0.000506121
0.000559322
0.000615578
0.000675019
-0.000368257
-0.000368964
-0.000368783
-0.000368505
-0.000367873
-0.000366943
-0.00036571
-0.000364171
-0.000362322
-0.000360157
-0.000357673
-0.000354863
-0.000351721
-0.00034824
-0.000344411
-0.000340227
-0.000335677
-0.000330751
-0.000325437
-0.000319723
-0.000313595
-0.000307039
-0.000300039
-0.000292578
-0.000284636
-0.000276194
-0.00026723
-0.000257721
-0.000247642
-0.000236965
-0.000225661
-0.0002137
-0.000201047
-0.000187665
-0.000173515
-0.000158554
-0.000142736
-0.000126012
-0.000108328
-8.96257e-05
-6.98439e-05
-4.89151e-05
-2.67668e-05
-3.32081e-06
2.15071e-05
4.78073e-05
7.56764e-05
0.000105218
0.000136545
0.000169774
0.000205035
0.000242462
0.000282197
0.000324393
0.000369207
0.000416804
0.000467351
0.000521022
0.000577987
0.000638417
-0.000388131
-0.000388835
-0.000388678
-0.000388438
-0.000387862
-0.000387003
-0.000385861
-0.000384428
-0.000382701
-0.000380677
-0.000378351
-0.000375716
-0.000372766
-0.000369495
-0.000365894
-0.000361955
-0.000357669
-0.000353024
-0.000348011
-0.000342615
-0.000336825
-0.000330626
-0.000324001
-0.000316934
-0.000309407
-0.000301398
-0.000292886
-0.00028385
-0.000274262
-0.000264097
-0.000253325
-0.000241915
-0.000229831
-0.000217038
-0.000203496
-0.000189161
-0.000173986
-0.000157921
-0.000140912
-0.000122899
-0.000103819
-8.36018e-05
-6.21726e-05
-3.94501e-05
-1.53465e-05
1.02329e-05
3.73902e-05
6.62355e-05
9.68882e-05
0.000129477
0.000164138
0.000201021
0.000240284
0.000282094
0.00032663
0.000374081
0.000424644
0.000478522
0.000535927
0.00059707
-0.000408374
-0.000409074
-0.000408943
-0.000408742
-0.000408223
-0.00040744
-0.00040639
-0.000405067
-0.000403469
-0.000401591
-0.000399429
-0.000396976
-0.000394227
-0.000391174
-0.000387811
-0.000384128
-0.000380117
-0.000375767
-0.000371068
-0.000366007
-0.000360571
-0.000354746
-0.000348516
-0.000341865
-0.000334773
-0.000327223
-0.000319191
-0.000310656
-0.000301592
-0.000291972
-0.000281769
-0.000270949
-0.000259479
-0.000247322
-0.000234438
-0.000220783
-0.000206312
-0.000190971
-0.000174708
-0.00015746
-0.000139164
-0.000119748
-9.91356e-05
-7.72427e-05
-5.39787e-05
-2.92455e-05
-2.93629e-06
2.50647e-05
5.48834e-05
8.66561e-05
0.00012053
0.000156665
0.000195233
0.000236419
0.000280422
0.000327453
0.000377737
0.000431513
0.000489029
0.000550542
-0.000428967
-0.000429663
-0.000429558
-0.000429398
-0.000428939
-0.000428233
-0.000427279
-0.000426071
-0.000424606
-0.000422879
-0.000420887
-0.000418623
-0.000416082
-0.000413257
-0.000410141
-0.000406725
-0.000403
-0.000398958
-0.000394587
-0.000389875
-0.000384809
-0.000379377
-0.000373561
-0.000367346
-0.000360714
-0.000353646
-0.000346121
-0.000338116
-0.000329607
-0.000320568
-0.000310969
-0.00030078
-0.000289967
-0.000278493
-0.000266319
-0.000253401
-0.000239693
-0.000225143
-0.000209697
-0.000193293
-0.000175866
-0.000157345
-0.00013765
-0.000116697
-9.43935e-05
-7.06382e-05
-4.53209e-05