/*--------------------------------*- C++ -*----------------------------------*\
  =========                 |
  \\      /  F ield         | OpenFOAM: The Open Source CFD Toolbox
   \\    /   O peration     | Website:  https://openfoam.org
    \\  /    A nd           | Version:  8
     \\/     M anipulation  |
\*---------------------------------------------------------------------------*/
FoamFile
{
    version     2.0;
    format      ascii;
    class       volScalarField;
    location    "44";
    object      p;
}
// * * * * * * * * * * * * * * * * * * * * * * * * * * * * * * * * * * * * * //

dimensions      [0 2 -2 0 0 0 0];

internalField   nonuniform List<scalar> 
11600
(
3.03775e-09
-6.56057e-07
-3.69267e-07
3.38126e-07
1.66787e-06
3.5635e-06
6.01625e-06
9.0211e-06
1.25753e-05
1.66785e-05
2.13315e-05
2.65356e-05
3.22927e-05
3.86046e-05
4.5474e-05
5.29036e-05
6.08961e-05
6.94547e-05
7.8582e-05
8.82811e-05
9.85548e-05
0.000109406
0.000120838
0.000132853
0.000145453
0.000158643
0.000172423
0.000186797
0.000201765
0.00021733
0.000233492
0.000250251
0.000267609
0.000285563
0.000304113
0.000323256
0.00034299
0.000363311
0.000384214
0.000405691
0.000427736
0.00045034
0.000473491
0.000497176
0.000521382
0.000546088
0.000571275
0.000596916
0.000622979
0.000649423
0.000676195
0.000703218
0.00073038
0.000757492
0.000784179
0.000810039
0.000835645
0.000850984
0.000888935
0.000854609
3.52764e-07
-2.14255e-07
2.25661e-07
1.00828e-06
2.3801e-06
4.29663e-06
6.75863e-06
9.76819e-06
1.33255e-05
1.74309e-05
2.20856e-05
2.72913e-05
3.30498e-05
3.93634e-05
4.62346e-05
5.3666e-05
6.16604e-05
7.02208e-05
7.935e-05
8.90509e-05
9.93265e-05
0.00011018
0.000121613
0.00013363
0.000146234
0.000159425
0.000173208
0.000187583
0.000202554
0.000218121
0.000234285
0.000251047
0.000268407
0.000286364
0.000304917
0.000324063
0.000343801
0.000364126
0.000385032
0.000406515
0.000428566
0.000451176
0.000474336
0.000498034
0.000522253
0.000546978
0.000572189
0.000597862
0.000623969
0.000650475
0.000677337
0.000704501
0.000731895
0.000759419
0.000786968
0.000814535
0.000842065
0.000867703
0.000904532
0.000925226
-1.47355e-07
-7.99833e-07
-3.30868e-07
4.57332e-07
1.83759e-06
3.75965e-06
6.22453e-06
9.23524e-06
1.27926e-05
1.68974e-05
2.15508e-05
2.67545e-05
3.25105e-05
3.88212e-05
4.56892e-05
5.31172e-05
6.1108e-05
6.96646e-05
7.87899e-05
8.84868e-05
9.87586e-05
0.000109608
0.000121038
0.000133052
0.000145652
0.00015884
0.00017262
0.000186994
0.000201963
0.000217529
0.000233694
0.000250456
0.000267818
0.000285778
0.000304334
0.000323486
0.000343231
0.000363565
0.000384482
0.000405978
0.000428045
0.000450674
0.000473857
0.000497581
0.000521833
0.000546598
0.000571856
0.000597587
0.000623765
0.000650362
0.000677341
0.00070466
0.000732265
0.000760088
0.000788079
0.000816261
0.000844606
0.000873034
0.00090808
0.000934679
-1.07118e-06
-1.77195e-06
-1.27391e-06
-4.73716e-07
9.19625e-07
2.85036e-06
5.32001e-06
8.33256e-06
1.18897e-05
1.59929e-05
2.06438e-05
2.58441e-05
3.15962e-05
3.79024e-05
4.47654e-05
5.21881e-05
6.01732e-05
6.87239e-05
7.78432e-05
8.75342e-05
9.77999e-05
0.000108644
0.000120068
0.000132077
0.000144672
0.000157856
0.000171632
0.000186003
0.00020097
0.000216535
0.000232699
0.000249464
0.000266828
0.000284793
0.000303356
0.000322517
0.000342273
0.000362621
0.000383556
0.000405073
0.000427165
0.000449824
0.000473043
0.000496809
0.000521111
0.000545935
0.000571266
0.000597086
0.000623375
0.000650115
0.000677283
0.000704863
0.000732841
0.000761221
0.000790052
0.000819451
0.000849614
0.000881164
0.000916034
0.000950464
-2.66675e-06
-3.39752e-06
-2.88793e-06
-2.08579e-06
-6.87751e-07
1.2459e-06
3.71668e-06
6.72857e-06
1.02833e-05
1.43827e-05
1.90286e-05
2.42232e-05
2.99687e-05
3.62676e-05
4.31229e-05
5.05372e-05
5.85136e-05
6.70551e-05
7.61651e-05
8.58468e-05
9.61034e-05
0.000106938
0.000118354
0.000130354
0.000142941
0.000156118
0.000169888
0.000184254
0.000199217
0.00021478
0.000230944
0.00024771
0.000265078
0.000283049
0.000301621
0.000320794
0.000340565
0.000360932
0.00038189
0.000403435
0.000425561
0.00044826
0.000471525
0.000495347
0.000519713
0.000544612
0.000570031
0.000595955
0.00062237
0.000649262
0.000676617
0.000704428
0.000732696
0.000761441
0.000790718
0.000820632
0.000851382
0.000883457
0.000917431
0.000952368
-4.89949e-06
-5.64486e-06
-5.13007e-06
-4.32806e-06
-2.92836e-06
-9.94529e-07
1.47496e-06
4.484e-06
8.0343e-06
1.21277e-05
1.67664e-05
2.19527e-05
2.76891e-05
3.39782e-05
4.08229e-05
4.8226e-05
5.61907e-05
6.47201e-05
7.38178e-05
8.34871e-05
9.37313e-05
0.000104554
0.000115958
0.000127946
0.000140523
0.00015369
0.000167452
0.000181811
0.000196769
0.000212329
0.000228491
0.000245259
0.000262631
0.000280609
0.000299192
0.000318379
0.00033817
0.00035856
0.000379548
0.000401128
0.000423295
0.000446044
0.000469367
0.000493255
0.000517699
0.000542687
0.000568209
0.000594253
0.000620808
0.000647865
0.000675415
0.000703459
0.000732007
0.000761087
0.000790756
0.000821106
0.000852295
0.00088457
0.000918067
0.000952631
-7.76881e-06
-8.51934e-06
-8.0027e-06
-7.20172e-06
-5.80252e-06
-3.87072e-06
-1.40485e-06
1.59896e-06
5.14245e-06
9.22759e-06
1.38567e-05
1.90323e-05
2.47569e-05
3.10334e-05
3.78646e-05
4.52536e-05
5.32035e-05
6.17178e-05
7.07999e-05
8.04535e-05
9.0682e-05
0.000101489
0.000112878
0.000124852
0.000137415
0.00015057
0.000164321
0.00017867
0.000193622
0.000209177
0.000225338
0.000242106
0.000259482
0.000277468
0.000296064
0.000315269
0.000335081
0.0003555
0.000376523
0.000398145
0.000420362
0.000443169
0.000466559
0.000490525
0.000515057
0.000540147
0.000565785
0.000591961
0.000618666
0.000645893
0.000673637
0.000701899
0.00073069
0.000760032
0.000789966
0.000820553
0.000851886
0.000884068
0.000917113
0.00095093
-1.12732e-05
-1.20248e-05
-1.15083e-05
-1.07093e-05
-9.31245e-06
-7.38462e-06
-4.9245e-06
-1.9282e-06
1.60613e-06
5.68057e-06
1.02976e-05
1.54599e-05
2.117e-05
2.7431e-05
3.42457e-05
4.16174e-05
4.95493e-05
5.8045e-05
6.71082e-05
7.67424e-05
8.69515e-05
9.77392e-05
0.000109109
0.000121065
0.000133612
0.000146752
0.000160489
0.000174827
0.00018977
0.000205318
0.000221476
0.000238244
0.000255625
0.00027362
0.000292229
0.000311453
0.000331292
0.000351743
0.000372805
0.000394475
0.000416749
0.000439622
0.000463089
0.000487142
0.000511774
0.000536977
0.000562742
0.000589061
0.000615925
0.000643327
0.000671264
0.000699735
0.000728745
0.000758307
0.000788445
0.000819189
0.000850577
0.000882632
0.00091531
0.000948494
-1.54103e-05
-1.61612e-05
-1.56459e-05
-1.48497e-05
-1.3457e-05
-1.15349e-05
-9.08257e-06
-6.09592e-06
-2.57302e-06
1.48834e-06
6.09076e-06
1.12369e-05
1.69297e-05
2.3172e-05
2.9967e-05
3.73179e-05
4.52282e-05
5.37018e-05
6.27421e-05
7.23533e-05
8.25391e-05
9.33038e-05
0.000104651
0.000116586
0.000129112
0.000142234
0.000155955
0.000170279
0.000185209
0.000200749
0.000216902
0.000233669
0.000251054
0.000269058
0.000287682
0.000306927
0.000326793
0.00034728
0.000368386
0.00039011
0.000412447
0.000435393
0.000458945
0.000483095
0.000507837
0.000533164
0.000559068
0.00058554
0.000612573
0.000640159
0.000668293
0.00069697
0.000726191
0.000755958
0.000786278
0.000817155
0.000848591
0.000880564
0.000913001
0.000945768
-2.01777e-05
-2.09273e-05
-2.04139e-05
-1.96214e-05
-1.82342e-05
-1.63198e-05
-1.3877e-05
-1.09021e-05
-7.39283e-06
-3.34695e-06
1.2382e-06
6.36542e-06
1.20376e-05
1.82579e-05
2.50296e-05
3.23561e-05
4.02411e-05
4.86884e-05
5.7702e-05
6.72859e-05
7.74444e-05
8.81819e-05
9.95031e-05
0.000111413
0.000123915
0.000137014
0.000150715
0.000165021
0.000179937
0.000195466
0.000211611
0.000228376
0.000245763
0.000263775
0.000282414
0.000301681
0.000321577
0.000342103
0.000363257
0.000385038
0.000407444
0.000430471
0.000454116
0.000478372
0.000503235
0.000528697
0.00055475
0.000581388
0.000608601
0.000636381
0.00066472
0.000693612
0.000723048
0.000753023
0.00078353
0.000814554
0.000846074
0.000878041
0.000910372
0.000942929
-2.55729e-05
-2.63213e-05
-2.58104e-05
-2.50224e-05
-2.36421e-05
-2.17369e-05
-1.93057e-05
-1.63445e-05
-1.28511e-05
-8.82322e-06
-4.25812e-06
8.47054e-07
6.49535e-06
1.26901e-05
1.94347e-05
2.67328e-05
3.45884e-05
4.30053e-05
5.19876e-05
6.15399e-05
7.16667e-05
8.23729e-05
9.36634e-05
0.000105543
0.000118017
0.00013109
0.000144767
0.000159051
0.000173949
0.000189463
0.000205599
0.000222359
0.000239747
0.000257766
0.000276419
0.000295709
0.000315636
0.000336202
0.000357407
0.00037925
0.000401729
0.000424843
0.000448588
0.000472959
0.000497952
0.00052356
0.000549775
0.00057659
0.000603997
0.000631984
0.000660544
0.000689663
0.000719331
0.000749534
0.000780252
0.00081146
0.00084312
0.000875173
0.000907528
0.000940055
-3.15934e-05
-3.23408e-05
-3.18332e-05
-3.10505e-05
-2.96784e-05
-2.77841e-05
-2.53662e-05
-2.24207e-05
-1.89455e-05
-1.49383e-05
-1.03962e-05
-5.31633e-06
3.04542e-07
6.46992e-06
1.31835e-05
2.04491e-05
2.82708e-05
3.66528e-05
4.55993e-05
5.51153e-05
6.52057e-05
7.58758e-05
8.71309e-05
9.89762e-05
0.000111417
0.000124459
0.000138106
0.000152365
0.00016724
0.000182737
0.000198859
0.000215611
0.000232997
0.000251022
0.000269688
0.000288999
0.000308958
0.000329566
0.000350823
0.000372731
0.000395289
0.000418495
0.000442347
0.000466841
0.000491974
0.000517738
0.000544127
0.000571134
0.000598749
0.000626961
0.000655758
0.000685127
0.00071505
0.000745508
0.000776476
0.000807918
0.000839787
0.000872018
0.000904519
0.000937171
-3.82366e-05
-3.89829e-05
-3.84794e-05
-3.7703e-05
-3.63404e-05
-3.44584e-05
-3.20557e-05
-2.91281e-05
-2.56736e-05
-2.16898e-05
-1.71739e-05
-1.21228e-05
-6.53299e-06
-4.0086e-07
6.27752e-06
1.35062e-05
2.12894e-05
2.96315e-05
3.85374e-05
4.80121e-05
5.80611e-05
6.86899e-05
7.99043e-05
9.17098e-05
0.000104112
0.000117117
0.000130731
0.000144959
0.000159807
0.00017528
0.000191385
0.000208125
0.000225506
0.000243534
0.000262211
0.000281543
0.000301532
0.000322181
0.000343493
0.000365468
0.000388107
0.00041141
0.000435375
0.00046
0.000485281
0.000511213
0.000537789
0.000565001
0.000592841
0.000621296
0.000650353
0.000679996
0.000710204
0.000740955
0.000772216
0.000803948
0.000836098
0.000868599
0.00090136
0.000934272
-4.54994e-05
-4.62446e-05
-4.57459e-05
-4.49767e-05
-4.36248e-05
-4.17568e-05
-3.93711e-05
-3.64638e-05
-3.30327e-05
-2.90753e-05
-2.45889e-05
-1.957e-05
-1.40151e-05
-7.92037e-06
-1.2816e-06
5.90542e-06
1.36452e-05
2.19424e-05
3.08023e-05
4.02304e-05
5.02324e-05
6.08143e-05
7.19821e-05
8.37419e-05
9.60999e-05
0.000109063
0.000122636
0.000136828
0.000151643
0.000167089
0.00018317
0.000199894
0.000217266
0.000235293
0.000253978
0.000273327
0.000293345
0.000314035
0.0003354
0.000357444
0.000380167
0.000403571
0.000427655
0.000452417
0.000477855
0.000503965
0.00053074
0.000558173
0.000586254
0.000614972
0.000644313
0.000674258
0.000704786
0.000735869
0.000767473
0.000799554
0.000832058
0.000864916
0.000898041
0.000931332
-5.33785e-05
-5.41224e-05
-5.36291e-05
-5.2868e-05
-5.15281e-05
-4.96756e-05
-4.73091e-05
-4.44245e-05
-4.10196e-05
-3.70919e-05
-3.26383e-05
-2.76554e-05
-2.21395e-05
-1.60864e-05
-9.49191e-06
-2.35153e-06
5.33954e-06
1.35865e-05
2.23948e-05
3.17704e-05
4.17194e-05
5.22481e-05
6.33629e-05
7.50704e-05
8.73776e-05
0.000100292
0.000113819
0.000127968
0.000142744
0.000158155
0.000174208
0.00019091
0.000208268
0.000226288
0.000244977
0.00026434
0.000284384
0.000305112
0.00032653
0.000348642
0.000371451
0.000394958
0.000419165
0.00044407
0.000469673
0.00049597
0.000522956
0.000550624
0.000578965
0.000607967
0.000637616
0.000667894
0.000698776
0.000730234
0.000762231
0.000794722
0.000827652
0.000860952
0.000894538
0.000928314
-6.18697e-05
-6.26124e-05
-6.2125e-05
-6.13729e-05
-6.00463e-05
-5.82111e-05
-5.58659e-05
-5.30066e-05
-4.96308e-05
-4.5736e-05
-4.13189e-05
-3.63759e-05
-3.09031e-05
-2.48964e-05
-1.83512e-05
-1.12627e-05
-3.62588e-06
4.56494e-06
1.33156e-05
2.26325e-05
3.25218e-05
4.29904e-05
5.40452e-05
6.56935e-05
7.79428e-05
9.08008e-05
0.000104275
0.000118373
0.000133103
0.000148473
0.000164491
0.000181164
0.000198501
0.000216509
0.000235196
0.000254568
0.000274633
0.000295397
0.000316866
0.000339045
0.000361938
0.00038555
0.000409882
0.000434935
0.000460709
0.000487201
0.000514409
0.000542326
0.000570944
0.000600252
0.000630235
0.000660875
0.000692148
0.000724024
0.000756465
0.000789426
0.000822851
0.000856673
0.000890812
0.000925174
-7.09687e-05
-7.17101e-05
-7.12291e-05
-7.04869e-05
-6.91749e-05
-6.73589e-05
-6.50373e-05
-6.2206e-05
-5.88625e-05
-5.5004e-05
-5.06271e-05
-4.57281e-05
-4.03029e-05
-3.43474e-05
-2.78568e-05
-2.08259e-05
-1.32492e-05
-5.12069e-06
3.56585e-06
1.2817e-05
2.26395e-05
3.30407e-05
4.4028e-05
5.56094e-05
6.77931e-05
8.05871e-05
9.39999e-05
0.00010804
0.000122716
0.000138036
0.00015401
0.000170647
0.000187955
0.000205944
0.000224621
0.000243997
0.000264077
0.000284872
0.000306387
0.00032863
0.000351607
0.000375323
0.000399781
0.000424984
0.000450934
0.00047763
0.00050507
0.000533249
0.00056216
0.000591793
0.000622135
0.000653168
0.000684866
0.000717202
0.000750137
0.000783626
0.000817614
0.000852036
0.000886813
0.000921855
-8.06705e-05
-8.14106e-05
-8.09365e-05
-8.02052e-05
-7.89093e-05
-7.71143e-05
-7.48188e-05
-7.20182e-05
-6.87101e-05
-6.48914e-05
-6.05586e-05
-5.57079e-05
-5.03353e-05
-4.44363e-05
-3.80059e-05
-3.10385e-05
-2.35282e-05
-1.54686e-05
-6.85329e-06
2.32477e-06
1.20728e-05
2.23986e-05
3.33104e-05
4.48166e-05
5.6926e-05
6.96473e-05
8.29895e-05
9.69619e-05
0.000111574
0.000126836
0.000142757
0.000159348
0.000176619
0.00019458
0.00021324
0.00023261
0.0002527
0.000273518
0.000295074
0.000317377
0.000340433
0.00036425
0.000388834
0.000414189
0.000440318
0.000467222
0.000494901
0.000523353
0.000552573
0.000582551
0.000613275
0.000644727
0.000676886
0.000709722
0.0007432
0.000777274
0.00081189
0.000846985
0.000882483
0.000918297
-9.09698e-05
-9.17085e-05
-9.1242e-05
-9.05225e-05
-8.92442e-05
-8.74723e-05
-8.52052e-05
-8.24382e-05
-7.91688e-05
-7.53935e-05
-7.1109e-05
-6.63114e-05
-6.09965e-05
-5.51595e-05
-4.87951e-05
-4.18975e-05
-3.44603e-05
-2.64768e-05
-1.79401e-05
-8.84298e-06
8.22411e-07
1.10644e-05
2.18918e-05
3.33136e-05
4.53393e-05
5.79781e-05
7.12397e-05
8.51344e-05
9.96726e-05
0.000114865
0.000130724
0.000147259
0.000164482
0.000182404
0.000201038
0.000220394
0.000240483
0.000261317
0.000282906
0.000305261
0.000328391
0.000352306
0.000377012
0.000402516
0.000428825
0.000455941
0.000483866
0.0005126
0.00054214
0.000572478
0.000603605
0.000635505
0.000668156
0.000701532
0.000735598
0.00077031
0.000805618
0.000841457
0.000877755
0.000914427
-0.000101861
-0.000102598
-0.00010214
-0.000101433
-0.000100174
-9.84273e-05
-9.61911e-05
-9.34607e-05
-9.02332e-05
-8.65053e-05
-8.22736e-05
-7.75339e-05
-7.2282e-05
-6.65129e-05
-6.02208e-05
-5.33996e-05
-4.60424e-05
-3.81425e-05
-2.96925e-05
-2.06847e-05
-1.11107e-05
-9.61589e-07
9.7719e-06
2.10994e-05
3.30309e-05
4.55764e-05
5.87465e-05
7.25523e-05
8.70053e-05
0.000102117
0.000117901
0.000134368
0.000151532
0.000169405
0.000188
0.00020733
0.000227408
0.000248247
0.00026986
0.000292258
0.000315454
0.000339458
0.000364281
0.000389932
0.000416418
0.000443745
0.00047192
0.000500942
0.000530812
0.000561525
0.000593073
0.000625443
0.000658616
0.000692567
0.000727265
0.000762667
0.000798724
0.000835376
0.000872551
0.000910167
-0.000113337
-0.000114073
-0.000113624
-0.000112931
-0.000111693
-0.000109973
-0.000107771
-0.00010508
-0.000101898
-9.82214e-05
-9.4047e-05
-8.93706e-05
-8.41874e-05
-7.84922e-05
-7.22788e-05
-6.55409e-05
-5.82713e-05
-5.04629e-05
-4.2108e-05
-3.31983e-05
-2.3725e-05
-1.36786e-05
-3.04937e-06
8.17299e-06
1.9999e-05
3.24395e-05
4.55061e-05
5.92108e-05
7.35661e-05
8.8585e-05
0.000104281
0.000120667
0.000137758
0.000155568
0.000174112
0.000193403
0.000213457
0.000234288
0.000255911
0.000278341
0.000301592
0.000325677
0.000350608
0.000376398
0.000403056
0.000430593
0.000459016
0.000488329
0.000518536
0.000549633
0.000581617
0.000614477
0.000648198
0.000682757
0.000718126
0.000754265
0.000791129
0.000828658
0.000866784
0.000905426
-0.000125392
-0.000126126
-0.000125687
-0.00012501
-0.000123794
-0.000122104
-0.000119937
-0.000117289
-0.000114156
-0.000110536
-0.000106424
-0.000101816
-9.67073e-05
-9.10922e-05
-8.49644e-05
-7.8317e-05
-7.11429e-05
-6.34344e-05
-5.51835e-05
-4.63814e-05
-3.70188e-05
-2.70857e-05
-1.65718e-05
-5.46631e-06
6.24207e-06
1.85651e-05
3.15153e-05
4.51055e-05
5.93494e-05
7.4261e-05
8.98548e-05
0.000106146
0.000123149
0.000140881
0.000159357
0.000178594
0.000198608
0.000219416
0.000241036
0.000263484
0.000286776
0.000310928
0.000335956
0.000361874
0.000388697
0.000416437
0.000445104
0.000474707
0.000505252
0.00053674
0.00056917
0.000602537
0.000636827
0.000672022
0.000708097
0.000745018
0.000782739
0.000821208
0.000860355
0.000900103
-0.000138018
-0.000138751
-0.000138322
-0.000137661
-0.00013647
-0.000134811
-0.000132684
-0.000130082
-0.000127002
-0.000123442
-0.000119398
-0.000114864
-0.000109836
-0.000104307
-9.82723e-05
-9.17232e-05
-8.46529e-05
-7.70532e-05
-6.89157e-05
-6.02313e-05
-5.099e-05
-4.11814e-05
-3.07948e-05
-1.98186e-05
-8.24072e-06
3.95142e-06
1.67712e-05
3.02326e-05
4.43501e-05
5.91389e-05
7.46146e-05
9.07936e-05
0.000107693
0.000125329
0.00014372
0.000162885
0.000182842
0.00020361
0.000225209
0.000247657
0.000270973
0.000295177
0.000320286
0.00034632
0.000373295
0.000401226
0.00043013
0.000460017
0.000490897
0.000522777
0.00055566
0.000589543
0.000624419
0.000660274
0.000697086
0.000734826
0.000773454
0.000812918
0.000853154
0.000894086
-0.000151208
-0.000151939
-0.000151521
-0.000150878
-0.000149713
-0.000148089
-0.000146003
-0.00014345
-0.000140429
-0.000136934
-0.000132962
-0.000128508
-0.000123567
-0.000118132
-0.000112197
-0.000105754
-9.87962e-05
-9.13147e-05
-8.33007e-05
-7.47444e-05
-6.56358e-05
-5.59638e-05
-4.57169e-05
-3.48831e-05
-2.34496e-05
-1.14027e-05
1.27165e-06
1.45884e-05
2.85632e-05
4.32122e-05
5.85524e-05
7.46013e-05
9.13771e-05
0.000108899
0.000127186
0.000146259
0.000166138
0.000186846
0.000208403
0.000230831
0.000254152
0.000278387
0.00030356
0.00032969
0.0003568
0.000384909
0.000414035
0.000444195
0.000475403
0.000507671
0.000541006
0.000575411
0.000610884
0.000647415
0.00068499
0.000723583
0.000763158
0.00080367
0.000845057
0.000887247
-0.000164952
-0.000165681
-0.000165276
-0.000164652
-0.000163515
-0.000161927
-0.000159886
-0.000157387
-0.000154427
-0.000151002
-0.000147108
-0.00014274
-0.000137892
-0.000132558
-0.000126731
-0.000120403
-0.000113567
-0.000106214
-9.83337e-05
-8.99169e-05
-8.09528e-05
-7.14299e-05
-6.13361e-05
-5.06586e-05
-3.9384e-05
-2.74978e-05
-1.4985e-05
-1.82975e-06
1.19846e-05
2.64753e-05
4.16607e-05
5.75596e-05
7.41917e-05
9.15775e-05
0.000109739
0.000128697
0.000148477
0.000169101
0.000190592
0.000212977
0.000236278
0.000260522
0.000285735
0.00031194
0.000339163
0.000367428
0.000396758
0.000427175
0.000458698
0.000491344
0.000525125
0.00056005
0.000596123
0.000633342
0.000671696
0.000711168
0.000751726
0.000793331
0.000835927
0.000879445
-0.000179241
-0.000179968
-0.000179577
-0.000178973
-0.000177866
-0.000176318
-0.000174325
-0.000171883
-0.000168989
-0.000165639
-0.000161829
-0.000157553
-0.000152805
-0.000147579
-0.000141869
-0.000135665
-0.00012896
-0.000121745
-0.000114009
-0.000105744
-9.69367e-05
-8.7576e-05
-7.76492e-05
-6.71428e-05
-5.60426e-05
-4.43336e-05
-3.19997e-05
-1.90242e-05
-5.38941e-06
8.92318e-06
2.39329e-05
3.96601e-05
5.6126e-05
7.33528e-05
9.1364e-05
0.000110184
0.000129838
0.000150351
0.000171751
0.000194064
0.000217319
0.000241544
0.000266769
0.000293021
0.000320331
0.000348727
0.000378237
0.000408888
0.000440706
0.000473711
0.000507924
0.00054336
0.00058003
0.000617939
0.000657083
0.00069745
0.000739019
0.000781755
0.000825611
0.000870521
-0.000194066
-0.000194792
-0.000194414
-0.000193833
-0.000192758
-0.000191251
-0.00018931
-0.000186929
-0.000184106
-0.000180836
-0.000177115
-0.000172937
-0.000168297
-0.000163187
-0.000157601
-0.00015153
-0.000144967
-0.0001379
-0.000130322
-0.000122219
-0.000113582
-0.000104398
-9.46525e-05
-8.43327e-05
-7.34235e-05
-6.1909e-05
-4.97725e-05
-3.69961e-05
-2.35613e-05
-9.44833e-06
5.36337e-06
2.08954e-05
3.71707e-05
5.42131e-05
7.2048e-05
9.07017e-05
0.000110201
0.000130575
0.000151853
0.000174064
0.000197241
0.000221415
0.000246618
0.000272886
0.00030025
0.000328745
0.000358405
0.000389261
0.000421345
0.000454685
0.000489309
0.000525238
0.000562492
0.000601083
0.000641016
0.000682288
0.000724885
0.000768783
0.00081394
0.000860301
-0.000209417
-0.00021014
-0.000209778
-0.00020922
-0.000208179
-0.000206716
-0.00020483
-0.000202515
-0.000199767
-0.000196582
-0.000192956
-0.000188884
-0.000184358
-0.000179373
-0.00017392
-0.000167992
-0.00016158
-0.000154674
-0.000147263
-0.000139337
-0.000130883
-0.000121889
-0.000112341
-0.000102224
-9.15235e-05
-8.02221e-05
-6.83024e-05
-5.57458e-05
-4.25327e-05
-2.86422e-05
-1.40525e-05
1.25922e-06
1.73175e-05
3.4148e-05
5.17777e-05
7.02348e-05
8.95487e-05
0.00010975
0.000130872
0.000152947
0.000176009
0.000200095
0.000225241
0.000251485
0.000278866
0.000307423
0.000337194
0.000368218
0.000400533
0.000434174
0.000469177
0.000505572
0.000543386
0.000582642
0.000623353
0.000665527
0.000709161
0.000754239
0.00080073
0.000848587
-0.000225282
-0.000226003
-0.000225657
-0.000225124
-0.000224119
-0.000222704
-0.000220875
-0.000218629
-0.000215961
-0.000212867
-0.000209343
-0.000205383
-0.000200979
-0.000196127
-0.000190817
-0.000185041
-0.000178791
-0.000172056
-0.000164825
-0.000157089
-0.000148833
-0.000140044
-0.000130709
-0.000120813
-0.000110339
-9.92698e-05
-8.75874e-05
-7.52723e-05
-6.23037e-05
-4.866e-05
-3.4318e-05
-1.92535e-05
-3.4406e-06
1.3148e-05
3.05411e-05
4.87687e-05
6.78626e-05
8.78561e-05
0.000108784
0.000130683
0.000153592
0.000177548
0.000202594
0.000228771
0.000256124
0.000284697
0.000314534
0.000345681
0.000378182
0.000412081
0.000447422
0.000484245
0.000522585
0.000562475
0.000603942
0.000647003
0.000691667
0.00073793
0.000785774
0.000835163
-0.00024165
-0.000242369
-0.00024204
-0.000241532
-0.000240566
-0.000239201
-0.000237434
-0.000235261
-0.000232678
-0.000229681
-0.000226264
-0.000222423
-0.00021815
-0.000213438
-0.00020828
-0.000202667
-0.000196589
-0.000190037
-0.000183
-0.000175466
-0.000167423
-0.000158856
-0.000149751
-0.000140092
-0.000129864
-0.000119048
-0.000107624
-9.55732e-05
-8.28735e-05
-6.95022e-05
-5.54351e-05
-4.06466e-05
-2.51094e-05
-8.79477e-06
8.32772e-06
2.62902e-05
4.51267e-05
6.48731e-05
8.5567e-05
0.000107248
0.000129957
0.000153738
0.000178635
0.000204697
0.000231971
0.000260507
0.000290357
0.000321572
0.000354206
0.00038831
0.000423936
0.000461135
0.000499954
0.000540436
0.000582621
0.000626538
0.000672211
0.000719649
0.000768849
0.000819788
-0.000258508
-0.000259225
-0.000258914
-0.000258434
-0.000257508
-0.000256196
-0.000254495
-0.000252399
-0.000249906
-0.000247011
-0.000243708
-0.000239993
-0.000235858
-0.000231296
-0.000226299
-0.000220858
-0.000214964
-0.000208608
-0.000201777
-0.00019446
-0.000186644
-0.000178314
-0.000169457
-0.000160056
-0.000150093
-0.00013955
-0.000128408
-0.000116645
-0.000104239
-9.11675e-05
-7.7404e-05
-6.2922e-05
-4.7693e-05
-3.16867e-05
-1.48709e-05
2.78831e-06
2.13272e-05
4.0784e-05
6.1199e-05
8.26145e-05
0.000105075
0.000128629
0.000153324
0.000179214
0.000206351
0.000234791
0.000264591
0.000295812
0.000328514
0.000362759
0.000398607
0.000436119
0.000475355
0.00051637
0.000559218
0.000603945
0.000650586
0.00069917
0.000749709
0.000802199
-0.000275843
-0.000276558
-0.000276266
-0.000275815
-0.000274932
-0.000273676
-0.000272043
-0.00027003
-0.000267631
-0.000264844
-0.000261662
-0.00025808
-0.000254091
-0.000249687
-0.000244861
-0.000239603
-0.000233905
-0.000227756
-0.000221145
-0.000214059
-0.000206486
-0.000198411
-0.000189819
-0.000180694
-0.000171017
-0.000160769
-0.000149932
-0.000138482
-0.000126397
-0.000113653
-0.000100223
-8.60802e-05
-7.11935e-05
-5.55318e-05
-3.90612e-05
-2.17459e-05
-3.54767e-06
1.55739e-05
3.56615e-05
5.67607e-05
7.89197e-05
0.000102189
0.000126623
0.000152278
0.000179213
0.000207488
0.00023717
0.000268324
0.000301019
0.000335327
0.000371319
0.000409067
0.000448643
0.000490117
0.000533556
0.000579024
0.000626573
0.000676251
0.00072809
0.000782107
-0.000293642
-0.000294354
-0.000294082
-0.000293662
-0.000292825
-0.000291627
-0.000290067
-0.00028814
-0.000285841
-0.000283167
-0.000280113
-0.000276671
-0.000272836
-0.000268599
-0.000263953
-0.000258889
-0.000253398
-0.00024747
-0.000241092
-0.000234253
-0.000226938
-0.000219135
-0.000210826
-0.000201996
-0.000192626
-0.000182697
-0.000172188
-0.000161077
-0.000149341
-0.000136954
-0.00012389
-0.000110119
-9.56105e-05
-8.03316e-05
-6.42468e-05
-4.73186e-05
-2.95071e-05
-1.07698e-05
8.93865e-06
2.96665e-05
5.14651e-05
7.43892e-05
9.84965e-05
0.000123848
0.000150507
0.000178543
0.000208025
0.000239029
0.000271632
0.000305915
0.000341959
0.00037985
0.000419671
0.00046151
0.000505448
0.000551567
0.000599939
0.000650634
0.000703707
0.000759199
-0.00031189
-0.000312599
-0.000312348
-0.000311961
-0.000311171
-0.000310035
-0.000308551
-0.000306714
-0.000304521
-0.000301966
-0.000299045
-0.000295751
-0.000292078
-0.000288017
-0.000283562
-0.000278703
-0.000273431
-0.000267735
-0.000261605
-0.000255026
-0.000247987
-0.000240472
-0.000232466
-0.000223951
-0.00021491
-0.000205322
-0.000195167
-0.000184422
-0.000173063
-0.000161064
-0.000148398
-0.000135034
-0.000120941
-0.000106085
-9.04286e-05
-7.39332e-05
-5.65572e-05
-3.82561e-05
-1.89823e-05
1.31513e-06
2.26907e-05
4.52024e-05
6.89117e-05
9.38841e-05
0.000120189
0.0001479
0.000177095
0.000207855
0.000240268
0.000274423
0.000310414
0.000348337
0.000388293
0.000430381
0.000474703
0.000521358
0.000570443
0.000622049
0.000676258
0.00073314
-0.000330571
-0.000331278
-0.000331048
-0.000330695
-0.000329955
-0.000328884
-0.00032748
-0.000325739
-0.000323655
-0.000321225
-0.000318444
-0.000315305
-0.000311801
-0.000307926
-0.000303672
-0.000299029
-0.000293987
-0.000288538
-0.000282668
-0.000276366
-0.000269618
-0.00026241
-0.000254725
-0.000246546
-0.000237855
-0.000228632
-0.000218856
-0.000208504
-0.000197552
-0.000185972
-0.000173738
-0.000160818
-0.00014718
-0.000132788
-0.000117604
-0.00010159
-8.47006e-05
-6.68906e-05
-4.81102e-05
-2.83059e-05
-7.42054e-06
1.46068e-05
3.78416e-05
6.23534e-05
8.82166e-05
0.000115511
0.000144319
0.000174733
0.000206845
0.000240757
0.000276572
0.000314401
0.000354359
0.00039656
0.000441126
0.000488176
0.000537832
0.00059021
0.000645423
0.000703571
-0.00034967
-0.000350375
-0.000350168
-0.000349851
-0.000349162
-0.000348159
-0.000346839
-0.000345196
-0.000343228
-0.000340928
-0.000338293
-0.000335317
-0.000331992
-0.000328311
-0.000324267
-0.00031985
-0.000315052
-0.000309861
-0.000304267
-0.000298256
-0.000291816
-0.000284932
-0.000277587
-0.000269765
-0.000261447
-0.000252614
-0.000243243
-0.000233312
-0.000222796
-0.000211668
-0.0001999
-0.000187461
-0.000174317
-0.000160432
-0.000145769
-0.000130285
-0.000113936
-9.66747e-05
-7.84493e-05
-5.92045e-05
-3.88808e-05
-1.74142e-05
5.26399e-06
2.92273e-05
5.45549e-05
8.13311e-05
0.000109646
0.000139597
0.000171287
0.000204825
0.000240328
0.000277919
0.000317725
0.00035988
0.000404524
0.000451799
0.000501851
0.000554826
0.000610867
0.000670111
-0.000369171
-0.000369873
-0.00036969
-0.00036941
-0.000368776
-0.000367843
-0.00036661
-0.000365071
-0.000363222
-0.000361059
-0.000358577
-0.000355769
-0.000352631
-0.000349154
-0.00034533
-0.000341151
-0.000336607
-0.000331689
-0.000326383
-0.00032068
-0.000314564
-0.000308021
-0.000301036
-0.000293592
-0.00028567
-0.00027725
-0.00026831
-0.000258828
-0.000248779
-0.000238136
-0.00022687
-0.00021495
-0.000202341
-0.000189009
-0.000174913
-0.000160011
-0.000144258
-0.000127605
-0.000109999
-9.13837e-05
-7.16966e-05
-5.08716e-05
-2.88371e-05
-5.51591e-06
1.91749e-05
4.53246e-05
7.30295e-05
0.000102393
0.000133526
0.000166547
0.000201584
0.000238772
0.000278253
0.000320178
0.000364707
0.000412004
0.000462241
0.000515596
0.000572246
0.000632365
-0.000389056
-0.000389756
-0.000389598
-0.000389356
-0.000388778
-0.000387919
-0.000386776
-0.000385344
-0.00038362
-0.000381599
-0.000379276
-0.000376646
-0.000373701
-0.000370437
-0.000366843
-0.000362912
-0.000358635
-0.000354001
-0.000348999
-0.000343617
-0.000337842
-0.00033166
-0.000325054
-0.000318008
-0.000310504
-0.000302522
-0.00029404
-0.000285036
-0.000275484
-0.000265359
-0.000254631
-0.000243268
-0.000231238
-0.000218502
-0.000205023
-0.000190756
-0.000175656
-0.000159674
-0.000142755
-0.000124841
-0.000105869
-8.57699e-05
-6.44707e-05
-4.1891e-05
-1.79444e-05
7.46276e-06
3.44317e-05
6.30719e-05
9.35019e-05
0.000125849
0.000160251
0.000196853
0.000235814
0.0002773
0.00032149
0.000368574
0.000418749
0.000472223
0.00052921
0.000589927
-0.000409308
-0.000410005
-0.000409873
-0.00040967
-0.000409151
-0.000408368
-0.000407319
-0.000405999
-0.000404404
-0.00040253
-0.000400373
-0.000397926
-0.000395184
-0.000392141
-0.000388787
-0.000385115
-0.000381116
-0.000376779
-0.000372094
-0.000367049
-0.000361631
-0.000355826
-0.000349619
-0.000342993
-0.000335929
-0.000328409
-0.000320411
-0.000311913
-0.000302891
-0.000293317
-0.000283163
-0.000272397
-0.000260987
-0.000248895
-0.000236081
-0.000222504
-0.000208116
-0.000192867
-0.000176704
-0.000159566
-0.00014139
-0.000122106
-0.000101638
-7.99039e-05
-5.68147e-05
-3.22731e-05
-6.17354e-06
2.15988e-05
5.11685e-05
8.26707e-05
0.000116251
0.000152068
0.000190291
0.000231104
0.000274705
0.000321304
0.000371128
0.000424414
0.000481414
0.000542387
-0.000429908
-0.000430602
-0.000430496
-0.000430335
-0.000429876
-0.000429172
-0.00042822
-0.000427015
-0.000425554
-0.000423833
-0.000421848
-0.000419592
-0.00041706
-0.000414245
-0.000411141
-0.000407738
-0.000404028
-0.000400001
-0.000395647
-0.000390954
-0.000385909
-0.000380499
-0.000374709
-0.000368523
-0.000361922
-0.000354889
-0.000347402
-0.000339439
-0.000330976
-0.000321986
-0.000312443
-0.000302313
-0.000291566
-0.000280163
-0.000268066
-0.000255232
-0.000241616
-0.000227166
-0.000211829
-0.000195544
-0.000178248
-0.000159869
-0.000140331
-0.000119551
-9.74376e-05
-7.38903e-05
-4.88007e-05
-2.205e-05