/*--------------------------------*- C++ -*----------------------------------*\
  =========                 |
  \\      /  F ield         | OpenFOAM: The Open Source CFD Toolbox
   \\    /   O peration     | Website:  https://openfoam.org
    \\  /    A nd           | Version:  8
     \\/     M anipulation  |
\*---------------------------------------------------------------------------*/
FoamFile
{
    version     2.0;
    format      ascii;
    class       volScalarField;
    location    "43";
    object      p;
}
// * * * * * * * * * * * * * * * * * * * * * * * * * * * * * * * * * * * * * //

dimensions      [0 2 -2 0 0 0 0];

internalField   nonuniform List<scalar> 
116
(
1.14409e-08
-0.000980011
-0.00139663
-0.00302486
0.00123803
-0.00834069
5.21228e-05
-0.00067932
-0.000308903
-0.00356142
-0.00142626
-0.00292358
0.000835033
-6.60201e-05
-0.000398818
-0.00280962
-0.00540654
-0.00808779
0.0014991
0.000939447
-0.000192066
-0.00318035
-0.00725911
-0.00909129
0.00166243
0.00110109
-0.000538965
-0.00411494
-0.0090539
-0.0109024
0.000958446
0.000699028
-0.000897025
-0.00398873
-0.00859704
-0.0104874
0.00115495
0.00070609
-0.000566732
-0.00347217
-0.00770894
-0.0104214
0.000147057
0.000890963
0.000382848
-0.00142299
-0.00439864
-0.0066096
0.00154436
0.00081157
0.00199464
0.000327659
-0.00237129
-0.00506143
-0.00380382
0.00402574
0.00390856
0.00273484
-0.000429504
-0.00238236
0.00202792
0.0104866
0.00910856
0.0145577
-0.00187687
0.00196774
0.00495129
0.00824498
-0.00848078
-0.00585525
-0.00235604
0.000838939
-0.0101263
-0.00882866
-0.00712592
-0.00395081
-0.0115127
-0.0104043
-0.00968036
-0.00655999
-0.0113232
-0.00983291
-0.00990675
-0.00642647
-0.0113409
-0.00950563
-0.010452
-0.00316478
-0.00678488
-0.00494682
-0.00407703
0.00653815
-0.00705887
-0.00495202
-0.00306536
0.0142514
-0.00250066
0.00437302
0.0180131
0.054987
0.018096
0.0174843
0.0173181
0.0205011
0.0162491
0.0165598
0.014673
0.0168877
0.0126687
0.013483
0.0114762
0.012498
0.00906781
0.0163951
0.00988447
0.0143866
)
;

boundaryField
{
    movingWall
    {
        type            zeroGradient;
    }
    fixedWalls
    {
        type            zeroGradient;
    }
    frontAndBack
    {
        type            empty;
    }
}


// ************************************************************************* //
