/*--------------------------------*- C++ -*----------------------------------*\
  =========                 |
  \\      /  F ield         | OpenFOAM: The Open Source CFD Toolbox
   \\    /   O peration     | Website:  https://openfoam.org
    \\  /    A nd           | Version:  8
     \\/     M anipulation  |
\*---------------------------------------------------------------------------*/
FoamFile
{
    version     2.0;
    format      ascii;
    class       surfaceScalarField;
    location    "43";
    object      phi;
}
// * * * * * * * * * * * * * * * * * * * * * * * * * * * * * * * * * * * * * //

dimensions      [0 3 -1 0 0 0 0];

internalField   nonuniform List<scalar> 
208
(
1.75015e-05
-1.75015e-05
3.069e-05
-1.31885e-05
3.01015e-05
5.88485e-07
6.89171e-06
2.32098e-05
-7.02706e-05
7.71624e-05
7.05377e-05
-0.000140808
2.20137e-06
-1.97029e-05
-1.14909e-05
5.03759e-07
-5.27052e-05
4.18029e-05
-0.000105603
7.6108e-05
-0.000135057
0.000106616
7.15907e-05
-0.00013611
-1.58164e-05
-3.88646e-06
-4.38331e-05
2.85204e-05
-7.63787e-05
7.43484e-05
-0.000104597
0.000104326
-0.000112732
0.000114751
5.72949e-05
-9.84364e-05
-2.17879e-05
1.79015e-05
-4.49451e-05
5.16776e-05
-6.74176e-05
9.6821e-05
-7.91678e-05
0.000116076
-7.25911e-05
0.000108174
3.79432e-05
-5.32395e-05
-1.55059e-05
3.34074e-05
-3.37026e-05
6.98742e-05
-4.35008e-05
0.000106619
-4.21275e-05
0.000114703
-3.04796e-05
9.65265e-05
3.18514e-05
-2.43878e-05
-7.18881e-06
4.05962e-05
-9.88407e-06
7.25695e-05
-6.99637e-06
0.000103731
-2.78832e-06
0.000110495
3.92182e-06
8.98164e-05
3.7284e-05
-1.51072e-06
1.25043e-06
3.93458e-05
1.39007e-06
7.24299e-05
1.0982e-05
9.41396e-05
2.57906e-05
9.56862e-05
4.04594e-05
7.51476e-05
3.92649e-05
3.84785e-05
1.02637e-05
2.90821e-05
2.37524e-05
5.89411e-05
4.74859e-05
7.04061e-05
6.65483e-05
7.66238e-05
8.21309e-05
5.95649e-05
4.08008e-05
8.0595e-05
-3.6556e-05
6.56381e-05
-1.64245e-05
3.88097e-05
1.12019e-05
4.27796e-05
4.42792e-05
4.35466e-05
7.01201e-05
3.3724e-05
2.62812e-05
8.46398e-05
6.56381e-05
0.000104448
0.000147227
0.000190774
0.000224498
0.000250779
-0.000115161
9.37407e-05
-0.000119388
-6.76326e-05
-4.71483e-05
-3.80046e-07
-1.96344e-05
-3.48525e-05
-1.31457e-05
-0.000152548
0.000132914
-0.000111473
6.91038e-05
-9.59197e-05
-6.27013e-05
-4.04738e-05
-9.02984e-05
-0.000193022
-6.86425e-05
3.93098e-05
-6.58724e-05
-6.54713e-05
-3.76438e-05
-0.000118527
-0.000230666
-3.02097e-05
1.62801e-05
-3.00599e-05
-6.56211e-05
-2.07525e-05
-0.000127834
-0.000251418
-1.20617e-05
3.95394e-06
-1.54243e-05
-6.22585e-05
-1.46091e-05
-0.00012865
-0.000266027
9.22297e-06
-6.77975e-06
3.8536e-06
-5.68891e-05
-3.45839e-06
-0.000121338
-0.000269486
3.78207e-05
-6.12196e-06
1.66673e-05
-3.57357e-05
1.8706e-06
-0.000106541
-0.000267615
6.90071e-05
5.46594e-06
4.17351e-05
-8.46377e-06
2.68668e-05
-9.16726e-05
-0.000240748
8.33432e-05
6.76255e-06
8.20563e-05
-7.17693e-06
6.80041e-05
-7.76203e-05
-0.000172744
0.000257542
0.000250365
0.000172744
-3.58222e-05
3.58222e-05
-5.92488e-05
2.34266e-05
-5.81913e-05
-1.05752e-06
-5.81913e-05
-3.26843e-05
6.85065e-05
-4.2444e-05
3.31864e-05
-4.52327e-05
1.73113e-06
-0.000103424
-2.17226e-05
9.02291e-05
-1.0848e-05
2.23117e-05
-2.52732e-05
1.61564e-05
-0.000128697
-2.91591e-05
-7.2274e-06
-4.21665e-06
)
;

boundaryField
{
    movingWall
    {
        type            calculated;
        value           uniform 0;
    }
    fixedWalls
    {
        type            calculated;
        value           uniform 0;
    }
    frontAndBack
    {
        type            empty;
        value           nonuniform List<scalar> 0();
    }
}


// ************************************************************************* //
