/*--------------------------------*- C++ -*----------------------------------*\
  =========                 |
  \\      /  F ield         | OpenFOAM: The Open Source CFD Toolbox
   \\    /   O peration     | Website:  https://openfoam.org
    \\  /    A nd           | Version:  8
     \\/     M anipulation  |
\*---------------------------------------------------------------------------*/
FoamFile
{
    version     2.0;
    format      ascii;
    class       volVectorField;
    location    "43";
    object      U;
}
// * * * * * * * * * * * * * * * * * * * * * * * * * * * * * * * * * * * * * //

dimensions      [0 1 -1 0 0 0 0];

internalField   nonuniform List<vector> 
116
(
(0.0179817 -0.0107187 0)
(0.0158825 -0.0115303 0)
(0.0471109 -0.0196754 0)
(0.00985994 -0.0180832 0)
(0.00652292 0.0622079 0)
(-0.157872 0.0862914 0)
(0.00904991 -0.025033 0)
(-0.00509385 -0.0149763 0)
(-0.0162528 0.02111 0)
(-0.0939746 0.063073 0)
(-0.110439 0.0899129 0)
(-0.165996 0.0622176 0)
(-0.00252507 -0.0134806 0)
(-0.030169 0.0159412 0)
(-0.0551359 0.0607857 0)
(-0.10022 0.0921 0)
(-0.108985 0.119146 0)
(-0.120039 0.0737698 0)
(-0.00958855 0.00597427 0)
(-0.03393 0.0423978 0)
(-0.0543083 0.0896174 0)
(-0.0820586 0.114918 0)
(-0.0798226 0.113682 0)
(-0.0631672 0.044534 0)
(-0.00504895 0.0303813 0)
(-0.0253491 0.0601637 0)
(-0.040889 0.102516 0)
(-0.0471773 0.114292 0)
(-0.040093 0.0993319 0)
(-0.0192245 0.02899 0)
(-0.00329966 0.0347541 0)
(-0.0104647 0.0778034 0)
(-0.00903323 0.108894 0)
(-0.0048662 0.116975 0)
(-0.00147522 0.0966072 0)
(0.00988583 0.0367138 0)
(0.00158702 0.0484573 0)
(0.00106531 0.0682069 0)
(0.00194937 0.0990218 0)
(0.0196217 0.1016 0)
(0.0300732 0.0801151 0)
(0.0501226 0.035123 0)
(0.00866125 0.027617 0)
(0.0128668 0.0778329 0)
(0.0348479 0.0888331 0)
(0.0596083 0.092633 0)
(0.0710325 0.0738323 0)
(0.0910153 0.0468041 0)
(-0.055872 0.0341591 0)
(-0.0193984 0.0368712 0)
(-0.0114895 0.0530423 0)
(0.0328949 0.0587668 0)
(0.0542026 0.0434633 0)
(0.084576 0.0322057 0)
(0.053512 0.0909067 0)
(0.08487 0.044258 0)
(0.118155 0.0346451 0)
(0.178724 0.0308616 0)
(0.197544 0.0257188 0)
(0.249176 0.0225661 0)
(-0.111497 0.114262 0)
(-0.112195 -0.0300418 0)
(-0.0305096 0.00173138 0)
(-0.00530788 -0.137451 0)
(-0.107521 0.0783573 0)
(-0.111017 -0.0669867 0)
(-0.0831013 -0.072053 0)
(0.0048101 -0.173873 0)
(-0.0786266 0.0547798 0)
(-0.0560076 -0.0619586 0)
(-0.0738399 -0.113512 0)
(0.00084059 -0.217893 0)
(-0.045282 0.0268358 0)
(-0.0134546 -0.0656946 0)
(-0.0479076 -0.122439 0)
(0.00857571 -0.241564 0)
(-0.0303105 0.00470315 0)
(0.00730352 -0.0670604 0)
(-0.0396023 -0.133983 0)
(0.0123752 -0.263619 0)
(-0.0132159 0.00379834 0)
(0.0329925 -0.0547801 0)
(-0.0262741 -0.119309 0)
(0.0204565 -0.270381 0)
(0.0254921 -0.0186216 0)
(0.0533484 -0.0625127 0)
(-0.0230265 -0.129875 0)
(0.0279702 -0.274955 0)
(0.0698429 0.00806596 0)
(0.0713109 -0.00503056 0)
(0.00747299 -0.0752232 0)
(0.0514604 -0.249983 0)
(0.0809778 0.00124504 0)
(0.0898748 -0.0143132 0)
(0.0663059 -0.118827 0)
(0.0801782 -0.251744 0)
(0.244624 0.0140547 0)
(0.27199 0.0025384 0)
(0.21465 -0.0238642 0)
(0.153425 -0.0687415 0)
(-0.0203777 0.00264351 0)
(-0.0525869 0.00350219 0)
(-0.068759 0.00139792 0)
(-0.0433541 -0.033854 0)
(-0.0194018 0.0687726 0)
(-0.0439773 0.0445323 0)
(-0.0445202 -0.00384401 0)
(-0.042221 -0.0853028 0)
(-0.0361048 0.0659076 0)
(-0.00537776 0.0181996 0)
(-0.0180884 0.00687394 0)
(-0.0302241 -0.127456 0)
(-0.0092769 0.118372 0)
(-0.0435171 0.0304627 0)
(0.0260711 0.0262103 0)
(-0.0326996 -0.122926 0)
)
;

boundaryField
{
    movingWall
    {
        type            fixedValue;
        value           uniform (1 0 0);
    }
    fixedWalls
    {
        type            noSlip;
    }
    frontAndBack
    {
        type            empty;
    }
}


// ************************************************************************* //
