/*--------------------------------*- C++ -*----------------------------------*\
  =========                 |
  \\      /  F ield         | OpenFOAM: The Open Source CFD Toolbox
   \\    /   O peration     | Website:  https://openfoam.org
    \\  /    A nd           | Version:  8
     \\/     M anipulation  |
\*---------------------------------------------------------------------------*/
FoamFile
{
    version     2.0;
    format      ascii;
    class       surfaceScalarField;
    location    "56.5";
    object      phi;
}
// * * * * * * * * * * * * * * * * * * * * * * * * * * * * * * * * * * * * * //

dimensions      [0 3 -1 0 0 0 0];

internalField   nonuniform List<scalar> 
22960
(
-1.8398e-07
1.83858e-07
-7.99876e-07
6.15896e-07
-1.62577e-06
8.25898e-07
-2.53903e-06
9.13259e-07
-3.47907e-06
9.40037e-07
-4.42423e-06
9.45164e-07
-5.36969e-06
9.45454e-07
-6.31554e-06
9.4585e-07
-7.26283e-06
9.47295e-07
-8.21252e-06
9.49683e-07
-9.16529e-06
9.52777e-07
-1.01217e-05
9.5641e-07
-1.10822e-05
9.60487e-07
-1.20471e-05
9.64957e-07
-1.30169e-05
9.69787e-07
-1.39919e-05
9.74958e-07
-1.49723e-05
9.80452e-07
-1.59586e-05
9.86254e-07
-1.69509e-05
9.9235e-07
-1.79497e-05
9.98726e-07
-1.8955e-05
1.00537e-06
-1.99673e-05
1.01226e-06
-2.09867e-05
1.01938e-06
-2.20134e-05
1.02672e-06
-2.30477e-05
1.03426e-06
-2.40897e-05
1.04198e-06
-2.51395e-05
1.04986e-06
-2.61974e-05
1.05788e-06
-2.72634e-05
1.06602e-06
-2.83377e-05
1.07424e-06
-2.94202e-05
1.08254e-06
-3.05111e-05
1.09087e-06
-3.16103e-05
1.09922e-06
-3.27178e-05
1.10755e-06
-3.38337e-05
1.11584e-06
-3.49577e-05
1.12406e-06
-3.60899e-05
1.13216e-06
-3.723e-05
1.14012e-06
-3.83779e-05
1.14789e-06
-3.95333e-05
1.15542e-06
-4.0696e-05
1.16265e-06
-4.18655e-05
1.16952e-06
-4.30414e-05
1.1759e-06
-4.4223e-05
1.18163e-06
-4.54095e-05
1.18645e-06
-4.65994e-05
1.1899e-06
-4.77906e-05
1.19119e-06
-4.89794e-05
1.18884e-06
-5.01595e-05
1.18011e-06
-5.13194e-05
1.15987e-06
-5.24383e-05
1.11894e-06
-5.34808e-05
1.04247e-06
-5.43922e-05
9.11399e-07
-5.51038e-05
7.11648e-07
-5.55714e-05
4.67607e-07
-5.60035e-05
4.32049e-07
-5.74833e-05
1.47978e-06
-6.16912e-05
4.20793e-06
-7.97079e-05
1.80167e-05
4.05258e-05
-0.000120234
-6.35318e-07
8.19176e-07
-2.00301e-06
1.98358e-06
-3.73735e-06
2.56024e-06
-5.63857e-06
2.81448e-06
-7.60677e-06
2.90824e-06
-9.59967e-06
2.93806e-06
-1.16017e-05
2.94754e-06
-1.36085e-05
2.95259e-06
-1.56192e-05
2.95798e-06
-1.76342e-05
2.96472e-06
-1.96542e-05
2.97279e-06
-2.16798e-05
2.98202e-06
-2.37116e-05
2.99226e-06
-2.575e-05
3.0034e-06
-2.77956e-05
3.01537e-06
-2.98488e-05
3.02811e-06
-3.19099e-05
3.04156e-06
-3.39793e-05
3.05566e-06
-3.60573e-05
3.07036e-06
-3.81442e-05
3.08561e-06
-4.02402e-05
3.10135e-06
-4.23454e-05
3.11752e-06
-4.44601e-05
3.13405e-06
-4.65843e-05
3.15089e-06
-4.8718e-05
3.16796e-06
-5.08612e-05
3.18519e-06
-5.30138e-05
3.20251e-06
-5.51758e-05
3.21983e-06
-5.73468e-05
3.23708e-06
-5.95267e-05
3.25417e-06
-6.17152e-05
3.27102e-06
-6.39119e-05
3.28755e-06
-6.61164e-05
3.30368e-06
-6.83281e-05
3.31932e-06
-7.05467e-05
3.33439e-06
-7.27714e-05
3.34882e-06
-7.50018e-05
3.36256e-06
-7.72373e-05
3.37554e-06
-7.94771e-05
3.38772e-06
-8.17207e-05
3.39906e-06
-8.39676e-05
3.40955e-06
-8.62173e-05
3.41917e-06
-8.84693e-05
3.42789e-06
-9.07233e-05
3.43566e-06
-9.29792e-05
3.44232e-06
-9.52368e-05
3.44752e-06
-9.74961e-05
3.4505e-06
-9.9757e-05
3.44973e-06
-0.000102019
3.44242e-06
-0.000104283
3.42394e-06
-0.000106553
3.38816e-06
-0.000108842
3.33157e-06
-0.000111198
3.26794e-06
-0.000113754
3.26734e-06
-0.000116839
3.5525e-06
-0.000121136
4.72876e-06
-0.000127695
8.03969e-06
-0.000138477
1.49899e-05
-0.000152667
3.22066e-05
5.37948e-05
-0.000165936
-8.77185e-07
1.69636e-06
-2.65385e-06
3.76025e-06
-4.87181e-06
4.77819e-06
-7.28649e-06
5.22916e-06
-9.78199e-06
5.40374e-06
-1.23089e-05
5.46502e-06
-1.48485e-05
5.48705e-06
-1.73943e-05
5.49848e-06
-1.99451e-05
5.50875e-06
-2.25008e-05
5.52037e-06
-2.50617e-05
5.53376e-06
-2.76285e-05
5.54881e-06
-3.02017e-05
5.56538e-06
-3.27816e-05
5.5833e-06
-3.53687e-05
5.60247e-06
-3.79633e-05
5.62278e-06
-4.05659e-05
5.64411e-06
-4.31766e-05
5.66638e-06
-4.57957e-05
5.68948e-06
-4.84234e-05
5.7133e-06
-5.10598e-05
5.73773e-06
-5.37049e-05
5.76266e-06
-5.63588e-05
5.78796e-06
-5.90214e-05
5.8135e-06
-6.16926e-05
5.83915e-06
-6.43722e-05
5.86477e-06
-6.70599e-05
5.89021e-06
-6.97554e-05
5.91533e-06
-7.24583e-05
5.93997e-06
-7.51681e-05
5.96399e-06
-7.78843e-05
5.98722e-06
-8.06063e-05
6.00953e-06
-8.33334e-05
6.03078e-06
-8.60649e-05
6.05082e-06
-8.88001e-05
6.06956e-06
-9.15381e-05
6.08689e-06
-9.42783e-05
6.10276e-06
-9.702e-05
6.11714e-06
-9.97623e-05
6.13006e-06
-0.000102505
6.14161e-06
-0.000105247
6.15195e-06
-0.000107989
6.16134e-06
-0.000110732
6.17014e-06
-0.000113475
6.17882e-06
-0.00011622
6.18796e-06
-0.000118971
6.19824e-06
-0.000121731
6.21035e-06
-0.000124506
6.22502e-06
-0.000127307
6.24311e-06
-0.00013015
6.26664e-06
-0.000133064
6.30226e-06
-0.000136103
6.37123e-06
-0.000139369
6.5336e-06
-0.000143043
6.94153e-06
-0.000147434
7.94286e-06
-0.00015293
1.02248e-05
-0.000159769
1.48789e-05
-0.000168171
2.33919e-05
-0.000174548
3.85836e-05
5.60968e-05
-0.00017685
-9.91123e-07
2.68748e-06
-2.97189e-06
5.74102e-06
-5.42547e-06
7.23177e-06
-8.08405e-06
7.88774e-06
-1.08261e-05
8.14582e-06
-1.36011e-05
8.23997e-06
-1.63897e-05
8.27563e-06
-1.91854e-05
8.2942e-06
-2.19864e-05
8.30978e-06
-2.47925e-05
8.32644e-06
-2.76038e-05
8.34508e-06
-3.04208e-05
8.36575e-06
-3.32437e-05
8.38831e-06
-3.6073e-05
8.4126e-06
-3.8909e-05
8.43847e-06
-4.1752e-05
8.46577e-06
-4.46022e-05
8.49436e-06
-4.74599e-05
8.52408e-06
-5.03252e-05
8.55478e-06
-5.31982e-05
8.5863e-06
-5.6079e-05
8.61848e-06
-5.89674e-05
8.65112e-06
-6.18635e-05
8.68404e-06
-6.47671e-05
8.71706e-06
-6.76779e-05
8.74995e-06
-7.05956e-05
8.78251e-06
-7.352e-05
8.81453e-06
-7.64504e-05
8.84578e-06
-7.93865e-05
8.87602e-06
-8.23275e-05
8.90505e-06
-8.52729e-05
8.93264e-06
-8.8222e-05
8.95857e-06
-9.11739e-05
8.98265e-06
-9.41277e-05
9.00472e-06
-9.70828e-05
9.02463e-06
-0.000100038
9.04228e-06
-0.000102993
9.05765e-06
-0.000105947
9.07078e-06
-0.000108898
9.08182e-06
-0.000111848
9.09106e-06
-0.000114795
9.09895e-06
-0.00011774
9.10618e-06
-0.000120683
9.11372e-06
-0.000123627
9.12289e-06
-0.000126575
9.13552e-06
-0.000129531
9.15406e-06
-0.000132502
9.18193e-06
-0.000135501
9.22394e-06
-0.000138546
9.28749e-06
-0.000141664
9.38506e-06
-0.000144902
9.53994e-06
-0.000148329
9.79855e-06
-0.00015205
1.02548e-05
-0.000156203
1.10943e-05
-0.000160921
1.26606e-05
-0.000166211
1.55154e-05
-0.000171759
2.04261e-05
-0.000176662
2.82956e-05
-0.000177924
3.98451e-05
5.23209e-05
-0.000174148
-1.03389e-06
3.72137e-06
-3.10535e-06
7.81247e-06
-5.66454e-06
9.79097e-06
-8.4312e-06
1.06544e-05
-1.12808e-05
1.09954e-05
-1.41625e-05
1.11217e-05
-1.70575e-05
1.11706e-05
-1.99596e-05
1.11963e-05
-2.28669e-05
1.12172e-05
-2.57793e-05
1.12388e-05
-2.86968e-05
1.12626e-05
-3.16198e-05
1.12887e-05
-3.45485e-05
1.1317e-05
-3.74832e-05
1.13473e-05
-4.04243e-05
1.13795e-05
-4.33719e-05
1.14134e-05
-4.63263e-05
1.14488e-05
-4.92877e-05
1.14855e-05
-5.22561e-05
1.15232e-05
-5.52317e-05
1.15618e-05
-5.82143e-05
1.16011e-05
-6.12039e-05
1.16407e-05
-6.42004e-05
1.16806e-05
-6.72036e-05
1.17202e-05
-7.02132e-05
1.17595e-05
-7.32288e-05
1.17981e-05
-7.625e-05
1.18357e-05
-7.92763e-05
1.18721e-05
-8.23071e-05
1.19069e-05
-8.53418e-05
1.19397e-05
-8.83796e-05
1.19704e-05
-9.14198e-05
1.19987e-05
-9.44614e-05
1.20243e-05
-9.75036e-05
1.20469e-05
-0.000100545
1.20665e-05
-0.000103586
1.20829e-05
-0.000106625
1.20961e-05
-0.00010966
1.21063e-05
-0.000112692
1.21137e-05
-0.00011572
1.21189e-05
-0.000118743
1.21225e-05
-0.000121763
1.21258e-05
-0.00012478
1.21304e-05
-0.000127795
1.21385e-05
-0.000130813
1.21533e-05
-0.000133838
1.21791e-05
-0.000136878
1.22221e-05
-0.000139946
1.22913e-05
-0.000143058
1.24e-05
-0.000146242
1.25691e-05
-0.000149536
1.28334e-05
-0.000152989
1.32522e-05
-0.000156663
1.39281e-05
-0.000160604
1.50351e-05
-0.000164792
1.68495e-05
-0.000169037
1.97597e-05
-0.000172834
2.42236e-05
-0.000175186
3.06474e-05
-0.00017422
3.88796e-05
4.74392e-05
-0.000169339
-1.04572e-06
4.76709e-06
-3.15257e-06
9.91933e-06
-5.7544e-06
1.23928e-05
-8.56481e-06
1.34648e-05
-1.14573e-05
1.38878e-05
-1.43808e-05
1.40452e-05
-1.7317e-05
1.41068e-05
-2.026e-05
1.41393e-05
-2.32081e-05
1.41653e-05
-2.61613e-05
1.41919e-05
-2.91195e-05
1.42208e-05
-3.20831e-05
1.42523e-05
-3.50524e-05
1.42863e-05
-3.80277e-05
1.43226e-05
-4.10091e-05
1.4361e-05
-4.3997e-05
1.44013e-05
-4.69915e-05
1.44433e-05
-4.99928e-05
1.44867e-05
-5.3001e-05
1.45314e-05
-5.6016e-05
1.45769e-05
-5.9038e-05
1.4623e-05
-6.20667e-05
1.46695e-05
-6.5102e-05
1.47159e-05
-6.81437e-05
1.4762e-05
-7.11916e-05
1.48073e-05
-7.42451e-05
1.48517e-05
-7.73039e-05
1.48945e-05
-8.03674e-05
1.49356e-05
-8.3435e-05
1.49745e-05
-8.65061e-05
1.50108e-05
-8.95798e-05
1.50441e-05
-9.26552e-05
1.50742e-05
-9.57316e-05
1.51006e-05
-9.88079e-05
1.51232e-05
-0.000101883
1.51417e-05
-0.000104956
1.5156e-05
-0.000108026
1.51662e-05
-0.000111092
1.51724e-05
-0.000114154
1.51749e-05
-0.000117209
1.51745e-05
-0.000120259
1.51722e-05
-0.000123303
1.51695e-05
-0.000126341
1.51687e-05
-0.000129375
1.51726e-05
-0.000132408
1.51857e-05
-0.000135442
1.52137e-05
-0.000138485
1.5265e-05
-0.000141545
1.53513e-05
-0.000144635
1.54897e-05
-0.000147771
1.57058e-05
-0.000150976
1.60382e-05
-0.000154271
1.65472e-05
-0.000157668
1.73255e-05
-0.000161145
1.85119e-05
-0.000164596
2.02998e-05
-0.000167761
2.29256e-05
-0.000170157
2.66196e-05
-0.00017099
3.14798e-05
-0.000169292
3.71817e-05
4.28461e-05
-0.000164699
-1.04656e-06
5.81365e-06
-3.16419e-06
1.2037e-05
-5.78016e-06
1.50088e-05
-8.60567e-06
1.62903e-05
-1.15128e-05
1.6795e-05
-1.44504e-05
1.69828e-05
-1.74001e-05
1.70566e-05
-2.03564e-05
1.70955e-05
-2.33178e-05
1.71267e-05
-2.62841e-05
1.71583e-05
-2.92556e-05
1.71923e-05
-3.22325e-05
1.72292e-05
-3.52152e-05
1.7269e-05
-3.82039e-05
1.73113e-05
-4.11989e-05
1.7356e-05
-4.42004e-05
1.74028e-05
-4.72086e-05
1.74515e-05
-5.02236e-05
1.75018e-05
-5.32457e-05
1.75534e-05
-5.62747e-05
1.76059e-05
-5.93106e-05
1.7659e-05
-6.23534e-05
1.77123e-05
-6.5403e-05
1.77654e-05
-6.8459e-05
1.7818e-05
-7.15213e-05
1.78696e-05
-7.45893e-05
1.79197e-05
-7.76627e-05
1.79679e-05
-8.07409e-05
1.80138e-05
-8.38232e-05
1.80568e-05
-8.6909e-05
1.80966e-05
-8.99974e-05
1.81325e-05
-9.30876e-05
1.81644e-05
-9.61786e-05
1.81916e-05
-9.92693e-05
1.82139e-05
-0.000102359
1.82311e-05
-0.000105446
1.8243e-05
-0.000108529
1.82495e-05
-0.000111607
1.82509e-05
-0.00011468
1.82475e-05
-0.000117746
1.82403e-05
-0.000120804
1.82302e-05
-0.000123853
1.82191e-05
-0.000126894
1.82096e-05
-0.000129927
1.82051e-05
-0.000132952
1.82105e-05
-0.000135971
1.82327e-05
-0.000138986
1.82808e-05
-0.000142003
1.8368e-05
-0.000145026
1.85124e-05
-0.00014806
1.87399e-05
-0.000151109
1.90876e-05
-0.00015417
1.96079e-05
-0.000157219
2.03748e-05
-0.000160195
2.14875e-05
-0.000162963
2.30677e-05
-0.00016528
2.52428e-05
-0.000166761
2.8101e-05
-0.000166882
3.16008e-05
-0.000165139
3.54379e-05
3.90478e-05
-0.00016134
-1.04395e-06
6.8576e-06
-3.16227e-06
1.41553e-05
-5.78042e-06
1.76269e-05
-8.60897e-06
1.91189e-05
-1.15191e-05
1.97051e-05
-1.44594e-05
1.99231e-05
-1.74117e-05
2.00089e-05
-2.03704e-05
2.00542e-05
-2.33341e-05
2.00904e-05
-2.63028e-05
2.0127e-05
-2.92768e-05
2.01663e-05
-3.22563e-05
2.02088e-05
-3.52417e-05
2.02544e-05
-3.82334e-05
2.03029e-05
-4.12315e-05
2.03541e-05
-4.42364e-05
2.04077e-05
-4.72481e-05
2.04633e-05
-5.0267e-05
2.05207e-05
-5.32931e-05
2.05794e-05
-5.63264e-05
2.06392e-05
-5.9367e-05
2.06995e-05
-6.24147e-05
2.076e-05
-6.54695e-05
2.08202e-05
-6.85311e-05
2.08796e-05
-7.15992e-05
2.09377e-05
-7.46734e-05
2.0994e-05
-7.77534e-05
2.10479e-05
-8.08385e-05
2.10989e-05
-8.3928e-05
2.11464e-05
-8.70214e-05
2.11899e-05
-9.01176e-05
2.12288e-05
-9.32159e-05
2.12626e-05
-9.63151e-05
2.12908e-05
-9.94142e-05
2.1313e-05
-0.000102512
2.13289e-05
-0.000105607
2.13381e-05
-0.000108698
2.13406e-05
-0.000111784
2.13366e-05
-0.000114863
2.13265e-05
-0.000117934
2.13109e-05
-0.000120995
2.12912e-05
-0.000124045
2.12691e-05
-0.000127082
2.12471e-05
-0.000130106
2.12291e-05
-0.000133116
2.122e-05
-0.00013611
2.12267e-05
-0.000139087
2.12585e-05
-0.000142047
2.13281e-05
-0.000144988
2.14528e-05
-0.000147904
2.16558e-05
-0.000150785
2.19685e-05
-0.000153609
2.24326e-05
-0.000156336
2.31013e-05
-0.000158887
2.40391e-05
-0.000161134
2.53147e-05
-0.000162876
2.69847e-05
-0.000163836
2.90603e-05
-0.000163687
3.14524e-05
-0.000162167
3.39179e-05
3.60751e-05
-0.000159194
-1.04039e-06
7.89799e-06
-3.15542e-06
1.62703e-05
-5.77092e-06
2.02424e-05
-8.59752e-06
2.19455e-05
-1.15059e-05
2.26136e-05
-1.44445e-05
2.28617e-05
-1.7395e-05
2.29593e-05
-2.03518e-05
2.3011e-05
-2.33137e-05
2.30523e-05
-2.62807e-05
2.3094e-05
-2.92531e-05
2.31387e-05
-3.22312e-05
2.31869e-05
-3.52155e-05
2.32386e-05
-3.82062e-05
2.32936e-05
-4.12036e-05
2.33515e-05
-4.4208e-05
2.34121e-05
-4.72197e-05
2.3475e-05
-5.02388e-05
2.35398e-05
-5.32655e-05
2.36061e-05
-5.62998e-05
2.36735e-05
-5.93418e-05
2.37415e-05
-6.23913e-05
2.38096e-05
-6.54483e-05
2.38772e-05
-6.85126e-05
2.39439e-05
-7.15839e-05
2.4009e-05
-7.46619e-05
2.40719e-05
-7.7746e-05
2.4132e-05
-8.08358e-05
2.41887e-05
-8.39306e-05
2.42412e-05
-8.70297e-05
2.42889e-05
-9.01321e-05
2.43312e-05
-9.3237e-05
2.43675e-05
-9.63432e-05
2.4397e-05
-9.94495e-05
2.44194e-05
-0.000102555
2.4434e-05
-0.000105657
2.44406e-05
-0.000108756
2.4439e-05
-0.000111848
2.44291e-05
-0.000114933
2.44113e-05
-0.000118008
2.43862e-05
-0.000121072
2.43548e-05
-0.000124121
2.43188e-05
-0.000127155
2.42807e-05
-0.00013017
2.4244e-05
-0.000133163
2.42132e-05
-0.000136131
2.41948e-05
-0.00013907
2.41972e-05
-0.000141974
2.42318e-05
-0.000144834
2.43132e-05
-0.000147639
2.44607e-05
-0.000150369
2.46984e-05
-0.000152992
2.50563e-05
-0.000155461
2.55697e-05
-0.000157698
2.62758e-05
-0.00015959
2.72075e-05
-0.000160985
2.83792e-05
-0.00016169
2.97652e-05
-0.000161507
3.12698e-05
-0.000160297
3.27076e-05
3.3816e-05
-0.000158038
-1.03651e-06
8.93451e-06
-3.14659e-06
1.83804e-05
-5.75737e-06
2.28532e-05
-8.57983e-06
2.47679e-05
-1.14844e-05
2.55182e-05
-1.44193e-05
2.57965e-05
-1.73662e-05
2.59062e-05
-2.03194e-05
2.59642e-05
-2.32778e-05
2.60108e-05
-2.62414e-05
2.60576e-05
-2.92106e-05
2.61079e-05
-3.21858e-05
2.61621e-05
-3.51673e-05
2.62202e-05
-3.81555e-05
2.62818e-05
-4.11508e-05
2.63468e-05
-4.41535e-05
2.64148e-05
-4.71638e-05
2.64853e-05
-5.01819e-05
2.65579e-05
-5.32079e-05
2.66322e-05
-5.62421e-05
2.67077e-05
-5.92844e-05
2.67838e-05
-6.23348e-05
2.686e-05
-6.53933e-05
2.69357e-05
-6.84596e-05
2.70102e-05
-7.15335e-05
2.70829e-05
-7.46146e-05
2.71531e-05
-7.77026e-05
2.722e-05
-8.07969e-05
2.72829e-05
-8.38968e-05
2.73411e-05
-8.70016e-05
2.73937e-05
-9.01104e-05
2.74401e-05
-9.32222e-05
2.74793e-05
-9.63359e-05
2.75107e-05
-9.94501e-05
2.75336e-05
-0.000102563
2.75474e-05
-0.000105674
2.75515e-05
-0.000108781
2.75456e-05
-0.000111881
2.75296e-05
-0.000114973
2.75034e-05
-0.000118055
2.74675e-05
-0.000121123
2.74227e-05
-0.000124174
2.73704e-05
-0.000127206
2.73125e-05
-0.000130214
2.72521e-05
-0.000133194
2.71931e-05
-0.00013614
2.71409e-05
-0.000139046
2.71025e-05
-0.000141901
2.70871e-05
-0.000144694
2.71062e-05
-0.000147407
2.71741e-05
-0.000150017
2.7308e-05
-0.000152488
2.75274e-05
-0.000154771
2.78527e-05
-0.000156797
2.83021e-05
-0.000158475
2.88851e-05
-0.000159689
2.95933e-05
-0.00016031
3.03862e-05
-0.000160217
3.11768e-05
-0.000159335
3.18253e-05
3.21488e-05
-0.000157667
-1.03239e-06
9.96689e-06
-3.13661e-06
2.04846e-05
-5.74158e-06
2.54582e-05
-8.55873e-06
2.75851e-05
-1.14584e-05
2.84178e-05
-1.43885e-05
2.87267e-05
-1.73308e-05
2.88484e-05
-2.02795e-05
2.8913e-05
-2.32335e-05
2.89648e-05
-2.6193e-05
2.9017e-05
-2.91582e-05
2.90731e-05
-3.21296e-05
2.91335e-05
-3.51077e-05
2.91982e-05
-3.80928e-05
2.92669e-05
-4.10853e-05
2.93394e-05
-4.40855e-05
2.9415e-05
-4.70938e-05
2.94936e-05
-5.01104e-05
2.95745e-05
-5.31354e-05
2.96572e-05
-5.61691e-05
2.97413e-05
-5.92115e-05
2.98262e-05
-6.22625e-05
2.99111e-05
-6.53223e-05
2.99954e-05
-6.83905e-05
3.00784e-05
-7.14671e-05
3.01594e-05
-7.45516e-05
3.02376e-05
-7.76437e-05
3.03121e-05
-8.07428e-05
3.03821e-05
-8.38484e-05
3.04467e-05
-8.69595e-05
3.05049e-05
-9.00755e-05
3.0556e-05
-9.31952e-05
3.0599e-05
-9.63174e-05
3.06329e-05
-9.94407e-05
3.06569e-05
-0.000102564
3.06703e-05
-0.000105685
3.06723e-05
-0.000108801
3.06624e-05
-0.000111912
3.064e-05
-0.000115013
3.0605e-05
-0.000118103
3.05575e-05
-0.000121178
3.04979e-05
-0.000124235
3.0427e-05
-0.000127269
3.03464e-05
-0.000130275
3.02582e-05
-0.000133248
3.01655e-05
-0.000136179
3.00723e-05
-0.00013906
2.99839e-05
-0.00014188
2.99069e-05
-0.000144623
2.98495e-05
-0.000147271
2.98213e-05
-0.000149796
2.9833e-05
-0.000152164
2.98954e-05
-0.000154329
3.00179e-05
-0.000156232
3.02055e-05
-0.000157801
3.04539e-05
-0.000158951
3.0743e-05
-0.000159594
3.10291e-05
-0.000159655
3.12379e-05
-0.000159093
3.12636e-05
3.09773e-05
-0.000157922
-1.02794e-06
1.09948e-05
-3.12562e-06
2.25823e-05
-5.72399e-06
2.80565e-05
-8.53501e-06
3.03961e-05
-1.14289e-05
3.13118e-05
-1.43536e-05
3.16513e-05
-1.72905e-05
3.17853e-05
-2.0234e-05
3.18565e-05
-2.31831e-05
3.19139e-05
-2.61377e-05
3.19717e-05
-2.90984e-05
3.20337e-05
-3.20655e-05
3.21006e-05
-3.50396e-05
3.21723e-05
-3.80211e-05
3.22484e-05
-4.10104e-05
3.23286e-05
-4.40078e-05
3.24125e-05
-4.70138e-05
3.24995e-05
-5.00286e-05
3.25892e-05
-5.30524e-05
3.2681e-05
-5.60854e-05
3.27743e-05
-5.91277e-05
3.28685e-05
-6.21794e-05
3.29628e-05
-6.52405e-05
3.30565e-05
-6.83108e-05
3.31488e-05
-7.13902e-05
3.32389e-05
-7.44784e-05
3.33258e-05
-7.75751e-05
3.34087e-05
-8.06797e-05
3.34866e-05
-8.37915e-05
3.35585e-05
-8.691e-05
3.36234e-05
-9.0034e-05
3.36801e-05
-9.31627e-05
3.37276e-05
-9.62948e-05
3.37649e-05
-9.94288e-05
3.37909e-05
-0.000102563
3.38046e-05
-0.000105696
3.38051e-05
-0.000108825
3.37914e-05
-0.000111948
3.37629e-05
-0.000115062
3.3719e-05
-0.000118164
3.36594e-05
-0.00012125
3.3584e-05
-0.000124316
3.34931e-05
-0.000127357
3.33875e-05
-0.000130367
3.32684e-05
-0.000133339
3.31378e-05
-0.000136265
3.29983e-05
-0.000139135
3.28532e-05
-0.000141934
3.27066e-05
-0.000144648
3.25635e-05
-0.000147256
3.24291e-05
-0.000149732
3.23086e-05
-0.000152043
3.22063e-05
-0.000154148
3.21234e-05
-0.000155999
3.20564e-05
-0.000157538
3.19931e-05
-0.000158704
3.19085e-05
-0.000159435
3.17607e-05
-0.000159685
3.14876e-05
-0.00015943
3.10088e-05
3.02318e-05
-0.000158685
-1.02312e-06
1.2018e-05
-3.11359e-06
2.46727e-05
-5.70466e-06
3.06476e-05
-8.50883e-06
3.32002e-05
-1.13963e-05
3.41992e-05
-1.43148e-05
3.45698e-05
-1.72457e-05
3.47162e-05
-2.01835e-05
3.47943e-05
-2.31269e-05
3.48573e-05
-2.60762e-05
3.4921e-05
-2.90318e-05
3.49893e-05
-3.19941e-05
3.5063e-05
-3.49638e-05
3.5142e-05
-3.79412e-05
3.52259e-05
-4.09269e-05
3.53143e-05
-4.39212e-05
3.54068e-05
-4.69246e-05
3.55029e-05
-4.99373e-05
3.56019e-05
-5.29596e-05
3.57034e-05
-5.59918e-05
3.58065e-05
-5.9034e-05
3.59107e-05
-6.20863e-05
3.60151e-05
-6.51488e-05
3.6119e-05
-6.82214e-05
3.62214e-05
-7.1304e-05
3.63214e-05
-7.43963e-05
3.64181e-05
-7.74979e-05
3.65104e-05
-8.06085e-05
3.65973e-05
-8.37275e-05
3.66775e-05
-8.6854e-05
3.67499e-05
-8.99873e-05
3.68133e-05
-9.31262e-05
3.68666e-05
-9.62695e-05
3.69083e-05
-9.94158e-05
3.69372e-05
-0.000102563
3.69521e-05
-0.00010571
3.69519e-05
-0.000108854
3.69352e-05
-0.000111992
3.69011e-05
-0.000115122
3.68486e-05
-0.000118239
3.67768e-05
-0.00012134
3.66853e-05
-0.000124421
3.65736e-05
-0.000127475
3.64417e-05
-0.000130497
3.62899e-05
-0.000133477
3.61188e-05
-0.000136409
3.59296e-05
-0.000139279
3.57237e-05
-0.000142076
3.55029e-05
-0.000144781
3.5269e-05
-0.000147376
3.50237e-05
-0.000149835
3.47679e-05
-0.000152129
3.45005e-05
-0.000154223
3.42175e-05
-0.000156077
3.39098e-05
-0.000157644
3.35611e-05
-0.000158881
3.31451e-05
-0.000159744
3.26237e-05
-0.000160202
3.19454e-05
-0.000160241
3.10481e-05
2.98638e-05
-0.000159873
-1.01788e-06
1.30358e-05
-3.10046e-06
2.67553e-05
-5.6835e-06
3.32307e-05
-8.48011e-06
3.59969e-05
-1.13605e-05
3.70796e-05
-1.42721e-05
3.74815e-05
-1.71964e-05
3.76405e-05
-2.01278e-05
3.77257e-05
-2.3065e-05
3.77946e-05
-2.60084e-05
3.78643e-05
-2.89583e-05
3.79392e-05
-3.19154e-05
3.802e-05
-3.48801e-05
3.81067e-05
-3.78531e-05
3.81988e-05
-4.08347e-05
3.8296e-05
-4.38255e-05
3.83976e-05
-4.68259e-05
3.85032e-05
-4.98362e-05
3.86122e-05
-5.28568e-05
3.8724e-05
-5.5888e-05
3.88377e-05
-5.893e-05
3.89527e-05
-6.19829e-05
3.9068e-05
-6.50469e-05
3.91829e-05
-6.81219e-05
3.92964e-05
-7.12079e-05
3.94074e-05
-7.43046e-05
3.95148e-05
-7.74118e-05
3.96176e-05
-8.0529e-05
3.97145e-05
-8.36557e-05
3.98042e-05
-8.67913e-05
3.98855e-05
-8.99348e-05
3.99569e-05
-9.30852e-05
4.0017e-05
-9.62413e-05
4.00643e-05
-9.94015e-05
4.00975e-05
-0.000102564
4.01148e-05
-0.000105727
4.0115e-05
-0.000108889
4.00964e-05
-0.000112045
4.00576e-05
-0.000115194
3.99972e-05
-0.000118331
3.9914e-05
-0.000121452
3.98066e-05
-0.000124553
3.96741e-05
-0.000127627
3.95156e-05
-0.000130667
3.93303e-05
-0.000133666
3.91177e-05
-0.000136614
3.88774e-05
-0.000139499
3.86091e-05
-0.000142309
3.83123e-05
-0.000145026
3.79864e-05
-0.000147632
3.763e-05
-0.000150105
3.72403e-05
-0.000152417
3.68129e-05
-0.00015454
3.63397e-05
-0.000156438
3.58086e-05
-0.000158079
3.52013e-05
-0.000159426
3.44921e-05
-0.000160449
3.36469e-05
-0.000161126
3.2623e-05
-0.00016145
3.13713e-05
2.98402e-05
-0.000161426
-1.01218e-06
1.4048e-05
-3.08616e-06
2.88293e-05
-5.66043e-06
3.58049e-05
-8.44877e-06
3.87852e-05
-1.13213e-05
3.99521e-05
-1.42254e-05
4.03856e-05
-1.71424e-05
4.05575e-05
-2.00667e-05
4.065e-05
-2.29972e-05
4.07251e-05
-2.5934e-05
4.08012e-05
-2.88778e-05
4.08829e-05
-3.1829e-05
4.09713e-05
-3.47883e-05
4.1066e-05
-3.77562e-05
4.11668e-05
-4.07334e-05
4.12731e-05
-4.37202e-05
4.13845e-05
-4.67172e-05
4.15003e-05
-4.97249e-05
4.16199e-05
-5.27435e-05
4.17426e-05
-5.57735e-05
4.18677e-05
-5.88151e-05
4.19943e-05
-6.18686e-05
4.21215e-05
-6.4934e-05
4.22484e-05
-6.80115e-05
4.23739e-05
-7.1101e-05
4.24969e-05
-7.42024e-05
4.26163e-05
-7.73155e-05
4.27307e-05
-8.044e-05
4.28389e-05
-8.35752e-05
4.29395e-05
-8.67206e-05
4.30309e-05
-8.98755e-05
4.31117e-05
-9.30386e-05
4.31801e-05
-9.62089e-05
4.32346e-05
-9.93849e-05
4.32735e-05
-0.000102565
4.32948e-05
-0.000105747
4.32968e-05
-0.000108928
4.32777e-05
-0.000112106
4.32356e-05
-0.000115278
4.31687e-05
-0.000118439
4.30751e-05
-0.000121585
4.2953e-05
-0.000124712
4.28006e-05
-0.000127812
4.26162e-05
-0.00013088
4.2398e-05
-0.000133906
4.21443e-05
-0.000136882
4.18534e-05
-0.000139796
4.15231e-05
-0.000142635
4.11513e-05
-0.000145384
4.0735e-05
-0.000148025
4.02704e-05
-0.000150536
3.97522e-05
-0.000152897
3.9173e-05
-0.000155079
3.85226e-05
-0.000157058
3.77868e-05
-0.000158803
3.69468e-05
-0.000160289
3.59782e-05
-0.000161493
3.48506e-05
-0.000162398
3.35282e-05
-0.000162998
3.19714e-05
3.01395e-05
-0.000163298
-1.00602e-06
1.5054e-05
-3.07065e-06
3.08939e-05
-5.63537e-06
3.83696e-05
-8.41467e-06
4.15645e-05
-1.12786e-05
4.2816e-05
-1.41745e-05
4.32815e-05
-1.70835e-05
4.34665e-05
-2.00001e-05
4.35666e-05
-2.29231e-05
4.36481e-05
-2.58528e-05
4.37308e-05
-2.87897e-05
4.38198e-05
-3.17345e-05
4.3916e-05
-3.46878e-05
4.40193e-05
-3.76502e-05
4.41292e-05
-4.06223e-05
4.42452e-05
-4.36047e-05
4.43669e-05
-4.6598e-05
4.44935e-05
-4.96025e-05
4.46245e-05
-5.26189e-05
4.4759e-05
-5.56474e-05
4.48962e-05
-5.86884e-05
4.50353e-05
-6.17422e-05
4.51753e-05
-6.48091e-05
4.53152e-05
-6.78891e-05
4.54539e-05
-7.09823e-05
4.55901e-05
-7.40887e-05
4.57226e-05
-7.72081e-05
4.58501e-05
-8.03402e-05
4.5971e-05
-8.34846e-05
4.60839e-05
-8.66407e-05
4.61871e-05
-8.98078e-05
4.62788e-05
-9.2985e-05
4.63573e-05
-9.6171e-05
4.64207e-05
-9.93645e-05
4.64669e-05
-0.000102564
4.6494e-05
-0.000105767
4.64998e-05
-0.000108971
4.6482e-05
-0.000112174
4.64385e-05
-0.000115372
4.63669e-05
-0.000118562
4.62647e-05
-0.000121738
4.61296e-05
-0.000124897
4.59591e-05
-0.000128031
4.57505e-05
-0.000131134
4.55012e-05
-0.000134198
4.52083e-05
-0.000137214
4.48687e-05
-0.00014017
4.4479e-05
-0.000143054
4.40353e-05
-0.000145851
4.35327e-05
-0.000148546
4.29655e-05
-0.00015112
4.23264e-05
-0.000153553
4.16061e-05
-0.000155824
4.07928e-05
-0.000157908
3.98714e-05
-0.000159785
3.88232e-05
-0.000161432
3.76251e-05
-0.000162831
3.62501e-05
-0.00016397
3.46675e-05
-0.000164843
3.28445e-05
3.07479e-05
-0.000165452
-9.99361e-07
1.60534e-05
-3.05386e-06
3.29484e-05
-5.60822e-06
4.0924e-05
-8.37769e-06
4.4334e-05
-1.12323e-05
4.56707e-05
-1.41192e-05
4.61684e-05
-1.70196e-05
4.63669e-05
-1.99277e-05
4.64747e-05
-2.28426e-05
4.65629e-05
-2.57644e-05
4.66526e-05
-2.86938e-05
4.67492e-05
-3.16315e-05
4.68537e-05
-3.45781e-05
4.69659e-05
-3.75344e-05
4.70855e-05
-4.0501e-05
4.72118e-05
-4.34784e-05
4.73444e-05
-4.64674e-05
4.74825e-05
-4.94685e-05
4.76255e-05
-5.24821e-05
4.77726e-05
-5.55088e-05
4.79229e-05
-5.85489e-05
4.80755e-05
-6.16029e-05
4.82293e-05
-6.4671e-05
4.83833e-05
-6.77535e-05
4.85363e-05
-7.08505e-05
4.86871e-05
-7.3962e-05
4.88341e-05
-7.70879e-05
4.8976e-05
-8.02281e-05
4.91112e-05
-8.33823e-05
4.9238e-05
-8.65499e-05
4.93547e-05
-8.97303e-05
4.94592e-05
-9.29226e-05
4.95496e-05
-9.61258e-05
4.96239e-05
-9.93385e-05
4.96796e-05
-0.000102559
4.97146e-05
-0.000105786
4.97263e-05
-0.000109016
4.97122e-05
-0.000112247
4.96695e-05
-0.000115475
4.95956e-05
-0.000118698
4.94873e-05
-0.00012191
4.93418e-05
-0.000125107
4.91557e-05
-0.000128282
4.89256e-05
-0.000131429
4.86481e-05
-0.000134539
4.83191e-05
-0.000137605
4.79344e-05
-0.000140616
4.74894e-05
-0.000143559
4.69785e-05
-0.000146422
4.63956e-05
-0.000149189
4.57333e-05
-0.000151846
4.49829e-05
-0.000154373
4.41336e-05
-0.000156753
4.31727e-05
-0.000158966
4.20846e-05
-0.000160994
4.08508e-05
-0.000162819
3.945e-05
-0.000164426
3.78575e-05
-0.000165806
3.60467e-05
-0.00016695
3.39893e-05
3.16577e-05
-0.00016786
-9.92197e-07
1.70456e-05
-3.03575e-06
3.4992e-05
-5.57889e-06
4.34671e-05
-8.33772e-06
4.70928e-05
-1.11822e-05
4.85152e-05
-1.40594e-05
4.90456e-05
-1.69503e-05
4.92578e-05
-1.98493e-05
4.93737e-05
-2.27552e-05
4.94689e-05
-2.56684e-05
4.95659e-05
-2.85896e-05
4.96704e-05
-3.15195e-05
4.97836e-05
-3.44589e-05
4.99052e-05
-3.74084e-05
5.0035e-05
-4.03687e-05
5.01722e-05
-4.33407e-05
5.03163e-05
-4.63248e-05
5.04667e-05
-4.93218e-05
5.06225e-05
-5.23323e-05
5.0783e-05
-5.53567e-05
5.09473e-05
-5.83956e-05
5.11144e-05
-6.14495e-05
5.12832e-05
-6.45187e-05
5.14525e-05
-6.76035e-05
5.16212e-05
-7.07042e-05
5.17877e-05
-7.38209e-05
5.19508e-05
-7.69536e-05
5.21088e-05
-8.01023e-05
5.22599e-05
-8.32667e-05
5.24024e-05
-8.64464e-05
5.25344e-05
-8.9641e-05
5.26537e-05
-9.28496e-05
5.27582e-05
-9.60713e-05
5.28455e-05
-9.93048e-05
5.29132e-05
-0.000102549
5.29585e-05
-0.000105801
5.29787e-05
-0.00010906
5.29709e-05
-0.000112322
5.29319e-05
-0.000115585
5.28585e-05
-0.000118845
5.27473e-05
-0.000122098
5.25945e-05
-0.000125338
5.23962e-05
-0.000128561
5.21484e-05
-0.00013176
5.18465e-05
-0.000134926
5.14858e-05
-0.000138053
5.10608e-05
-0.000141129
5.05658e-05
-0.000144145
4.99942e-05
-0.000147088
4.93385e-05
-0.000149945
4.85901e-05
-0.000152701
4.77391e-05
-0.000155341
4.67738e-05
-0.000157849
4.56808e-05
-0.000160209
4.44444e-05
-0.000162405
4.30465e-05
-0.000164422
4.1467e-05
-0.000166248
3.96834e-05
-0.000167873
3.76717e-05
-0.00016929
3.54072e-05
3.28655e-05
-0.000170498
-9.8451e-07
1.80301e-05
-3.01627e-06
3.70237e-05
-5.5473e-06
4.59982e-05
-8.29463e-06
4.98401e-05
-1.11282e-05
5.13488e-05
-1.39948e-05
5.19122e-05
-1.68754e-05
5.21384e-05
-1.97644e-05
5.22627e-05
-2.26607e-05
5.23651e-05
-2.55645e-05
5.24698e-05
-2.84768e-05
5.25827e-05
-3.13981e-05
5.2705e-05
-3.43294e-05
5.28365e-05
-3.72715e-05
5.2977e-05
-4.0225e-05
5.31257e-05
-4.31907e-05
5.32821e-05
-4.61694e-05
5.34454e-05
-4.91618e-05
5.36149e-05
-5.21685e-05
5.37897e-05
-5.51902e-05
5.3969e-05
-5.82275e-05
5.41516e-05
-6.12808e-05
5.43365e-05
-6.43507e-05
5.45224e-05
-6.74377e-05
5.47081e-05
-7.05419e-05
5.4892e-05
-7.36638e-05
5.50727e-05
-7.68034e-05
5.52483e-05
-7.99607e-05
5.54173e-05
-8.31358e-05
5.55775e-05
-8.63282e-05
5.57269e-05
-8.95377e-05
5.58632e-05
-9.27635e-05
5.59841e-05
-9.6005e-05
5.6087e-05
-9.92609e-05
5.61691e-05
-0.00010253
5.62275e-05
-0.00010581
5.62592e-05
-0.0001091
5.62608e-05
-0.000112397
5.62288e-05
-0.000115698
5.61595e-05
-0.000119
5.60489e-05
-0.000122298
5.58928e-05
-0.000125588
5.56865e-05
-0.000128865
5.54254e-05
-0.000132123
5.51041e-05
-0.000135354
5.47169e-05
-0.000138551
5.42576e-05
-0.000141704
5.37193e-05
-0.000144805
5.30945e-05
-0.000147841
5.23747e-05
-0.000150801
5.15502e-05
-0.000153672
5.06103e-05
-0.000156441
4.95425e-05
-0.000159093
4.83331e-05
-0.000161615
4.69663e-05
-0.000163993
4.54245e-05
-0.000166214
4.36884e-05
-0.000168268
4.17372e-05
-0.000170145
3.95488e-05
-0.000171839
3.71009e-05
3.43716e-05
-0.000173345
-9.76283e-07
1.90064e-05
-2.99537e-06
3.90428e-05
-5.51336e-06
4.85162e-05
-8.24828e-06
5.2575e-05
-1.107e-05
5.41705e-05
-1.39252e-05
5.47674e-05
-1.67948e-05
5.50079e-05
-1.96729e-05
5.51408e-05
-2.25586e-05
5.52509e-05
-2.54523e-05
5.53635e-05
-2.83548e-05
5.54851e-05
-3.12668e-05
5.5617e-05
-3.41893e-05
5.5759e-05
-3.71231e-05
5.59107e-05
-4.0069e-05
5.60716e-05
-4.30278e-05
5.62409e-05
-4.60004e-05
5.64179e-05
-4.89874e-05
5.6602e-05
-5.19898e-05
5.67921e-05
-5.50082e-05
5.69874e-05
-5.80432e-05
5.71867e-05
-6.10956e-05
5.73889e-05
-6.41659e-05
5.75927e-05
-6.72546e-05
5.77968e-05
-7.03622e-05
5.79996e-05
-7.3489e-05
5.81995e-05
-7.66355e-05
5.83948e-05
-7.98016e-05
5.85834e-05
-8.29875e-05
5.87634e-05
-8.61931e-05
5.89325e-05
-8.94181e-05
5.90882e-05
-9.26621e-05
5.92281e-05
-9.59244e-05
5.93493e-05
-9.92041e-05
5.94488e-05
-0.0001025
5.95235e-05
-0.000105811
5.95699e-05
-0.000109134
5.95844e-05
-0.000112469
5.95632e-05
-0.000115811
5.95019e-05
-0.000119158
5.93962e-05
-0.000122507
5.92412e-05
-0.000125852
5.90319e-05