/*--------------------------------*- C++ -*----------------------------------*\
  =========                 |
  \\      /  F ield         | OpenFOAM: The Open Source CFD Toolbox
   \\    /   O peration     | Website:  https://openfoam.org
    \\  /    A nd           | Version:  8
     \\/     M anipulation  |
\*---------------------------------------------------------------------------*/
FoamFile
{
    version     2.0;
    format      ascii;
    class       volScalarField;
    location    "2.5";
    object      p;
}
// * * * * * * * * * * * * * * * * * * * * * * * * * * * * * * * * * * * * * //

dimensions      [0 2 -2 0 0 0 0];

internalField   nonuniform List<scalar> 
11600
(
9.38251e-11
5.73133e-07
2.10775e-06
4.50274e-06
7.76433e-06
1.189e-05
1.68755e-05
2.2716e-05
2.94057e-05
3.69383e-05
4.53062e-05
5.45014e-05
6.45148e-05
7.53369e-05
8.6957e-05
9.9364e-05
0.000112546
0.00012649
0.000141183
0.000156611
0.000172759
0.000189612
0.000207153
0.000225367
0.000244237
0.000263744
0.000283871
0.000304599
0.000325909
0.000347782
0.000370198
0.000393137
0.000416579
0.000440503
0.000464889
0.000489715
0.000514962
0.000540609
0.000566634
0.000593018
0.00061974
0.000646782
0.000674125
0.00070175
0.000729643
0.000757787
0.000786171
0.000814784
0.00084362
0.000872679
0.000901965
0.000931492
0.000961289
0.000991401
0.0010219
0.00105292
0.00108465
0.00111699
0.00115314
0.00118372
-5.73517e-07
-1.9285e-10
1.53669e-06
3.93345e-06
7.19714e-06
1.13254e-05
1.6314e-05
2.21583e-05
2.88523e-05
3.63896e-05
4.47628e-05
5.39637e-05
6.39835e-05
7.48124e-05
8.64398e-05
9.88546e-05
0.000112045
0.000125998
0.0001407
0.000156137
0.000172295
0.000189158
0.000206711
0.000224936
0.000243817
0.000263336
0.000283475
0.000304215
0.000325538
0.000347423
0.000369853
0.000392805
0.00041626
0.000440198
0.000464597
0.000489438
0.000514698
0.000540358
0.000566397
0.000592793
0.000619529
0.000646583
0.000673937
0.000701573
0.000729475
0.000757628
0.000786018
0.000814635
0.000843472
0.000872527
0.000901802
0.00093131
0.000961073
0.000991128
0.00102154
0.0010524
0.00108385
0.00111596
0.00115052
0.00118185
-2.10969e-06
-1.53674e-06
2.77344e-09
2.40365e-06
5.67298e-06
9.80831e-06
1.48056e-05
2.06598e-05
2.73653e-05
3.49156e-05
4.33031e-05
5.25198e-05
6.25567e-05
7.3404e-05
8.50513e-05
9.74871e-05
0.0001107
0.000124676
0.000139403
0.000154866
0.000171051
0.000187942
0.000205524
0.000223779
0.000242691
0.000262242
0.000282413
0.000303187
0.000324544
0.000346464
0.000368929
0.000391917
0.000415408
0.000439383
0.000463819
0.000488695
0.000513992
0.000539688
0.000565763
0.000592195
0.000618964
0.000646051
0.000673436
0.000701102
0.00072903
0.000757204
0.000785612
0.00081424
0.000843079
0.000872125
0.000901375
0.000930834
0.000960516
0.00099044
0.00102064
0.00105115
0.00108204
0.00111332
0.00114542
0.00117611
-4.51251e-06
-3.93834e-06
-2.39469e-06
1.26464e-08
3.2908e-06
7.43727e-06
1.2448e-05
1.83179e-05
2.50415e-05
3.2612e-05
4.1022e-05
5.02633e-05
6.0327e-05
7.12032e-05
8.28814e-05
9.53502e-05
0.000108598
0.000122611
0.000137376
0.00015288
0.000169107
0.000186043
0.00020367
0.000221972
0.000240932
0.000260533
0.000280756
0.000301582
0.000322992
0.000344967
0.000367487
0.000390531
0.000414079
0.00043811
0.000462603
0.000487537
0.000512892
0.000538645
0.000564775
0.000591262
0.000618085
0.000645224
0.000672659
0.00070037
0.00072834
0.000756551
0.000784988
0.000813636
0.000842484
0.000871521
0.000900742
0.000930142
0.000959723
0.00098949
0.00101945
0.0010496
0.00107996
0.00111048
0.00114118
0.00117122
-7.79174e-06
-7.21555e-06
-5.66628e-06
-3.25015e-06
4.00302e-08
4.20173e-06
9.23079e-06
1.51223e-05
2.18704e-05
2.94686e-05
3.79093e-05
4.71843e-05
5.72846e-05
6.82003e-05
7.99207e-05
9.24346e-05
0.00010573
0.000119793
0.000134612
0.000150171
0.000166456
0.000183451
0.00020114
0.000219507
0.000238533
0.000258202
0.000278495
0.000299392
0.000320875
0.000342925
0.00036552
0.00038864
0.000412266
0.000436375
0.000460947
0.00048596
0.000511392
0.000537223
0.000563431
0.000589994
0.000616891
0.000644101
0.000671604
0.00069938
0.000727409
0.000755672
0.000784152
0.000812832
0.000841697
0.000870733
0.000899926
0.000929267
0.000958744
0.000988345
0.00101806
0.00104785
0.00107769
0.00110751
0.00113717
0.00116628
-1.19513e-05
-1.13725e-05
-9.816e-06
-7.38867e-06
-4.08324e-06
9.7771e-08
5.15017e-06
1.1069e-05
1.78483e-05
2.54816e-05
3.39613e-05
4.32791e-05
5.34259e-05
6.43917e-05
7.61658e-05
8.87369e-05
0.000102093
0.00011622
0.000131106
0.000146735
0.000163093
0.000180165
0.000197933
0.000216381
0.000235492
0.000255247
0.000275628
0.000296616
0.000318192
0.000340336
0.000363027
0.000386245
0.000409969
0.000434177
0.000458849
0.000483962
0.000509494
0.000535425
0.000561731
0.000588391
0.000615383
0.000642686
0.000670277
0.000698136
0.000726242
0.000754575
0.000783115
0.000811843
0.000840739
0.000869786
0.000898965
0.000928257
0.000957642
0.000987096
0.00101659
0.00104608
0.0010755
0.00110476
0.00113373
0.00116214
-1.69951e-05
-1.64131e-05
-1.48479e-05
-1.2407e-05
-9.08302e-06
-4.87857e-06
2.02151e-07
6.1541e-06
1.29714e-05
2.06473e-05
2.91743e-05
3.8544e-05
4.87472e-05
5.97738e-05
7.16132e-05
8.42536e-05
9.76829e-05
0.000111888
0.000126855
0.00014257
0.000159017
0.000176181
0.000194045
0.000212592
0.000231805
0.000251665
0.000272154
0.000293253
0.000314941
0.0003372
0.000360007
0.000383344
0.000407187
0.000431516
0.000456309
0.000481544
0.000507199
0.00053325
0.000559677
0.000586456
0.000613565
0.000640981
0.000668682
0.000696645
0.000724849
0.000753272
0.000781891
0.000810684
0.00083963
0.000868707
0.00089789
0.000927155
0.000956474
0.000985813
0.00101513
0.00104438
0.00107348
0.00110234
0.00113083
0.00115876
-2.29283e-05
-2.23425e-05
-2.0767e-05
-1.831e-05
-1.49642e-05
-1.07322e-05
-5.61809e-06
3.72894e-07
7.23486e-06
1.4961e-05
2.35437e-05
3.29745e-05
4.32441e-05
5.43424e-05
6.62585e-05
7.89807e-05
9.24967e-05
0.000106793
0.000121856
0.000137671
0.000154223
0.000171496
0.000189473
0.000208137
0.00022747
0.000247454
0.00026807
0.000289299
0.00031112
0.000333514
0.000356459
0.000379935
0.000403919
0.000428391
0.000453327
0.000478706
0.000504505
0.000530701
0.00055727
0.000584191
0.000611439
0.000638991
0.000666824
0.000694914
0.000723238
0.000751772
0.000780492
0.000809374
0.000838392
0.000867522
0.000896735
0.000926002
0.000955289
0.000984556
0.00101376
0.00104283
0.00107171
0.0011003
0.00112848
0.00115612
-2.97565e-05
-2.91664e-05
-2.75791e-05
-2.51036e-05
-2.17327e-05
-1.74688e-05
-1.23163e-05
-6.28029e-06
6.33154e-07
8.4172e-06
1.70641e-05
2.65653e-05
3.69115e-05
4.80924e-05
6.00969e-05
7.29133e-05
8.65291e-05
0.000100931
0.000116105
0.000132035
0.000148708
0.000166106
0.000184213
0.000203012
0.000222484
0.00024261
0.000263373
0.000284751
0.000306726
0.000329275
0.000352379
0.000376016
0.000400164
0.0004248
0.000449903
0.000475449
0.000501414
0.000527777
0.000554513
0.000581598
0.000609009
0.00063672
0.000664708
0.000692949
0.000721416
0.000750085
0.000778931
0.000807926
0.000837044
0.000866255
0.000895529
0.000924831
0.000954126
0.000983369
0.00101251
0.00104149
0.00107024
0.00109868
0.0011267
0.00115418
-3.74867e-05
-3.68917e-05
-3.52909e-05
-3.27945e-05
-2.9395e-05
-2.5095e-05
-1.98989e-05
-1.38119e-05
-6.84015e-06
1.00951e-06
9.72922e-06
1.93103e-05
2.97432e-05
4.10177e-05
5.31225e-05
6.60458e-05
7.97747e-05
9.42958e-05
0.000109595
0.000125657
0.000142467
0.000160007
0.000178262
0.000197213
0.000216842
0.00023713
0.000258059
0.000279608
0.000301756
0.000324483
0.000347767
0.000371587
0.00039592
0.000420743
0.000446035
0.00047177
0.000497927
0.00052448
0.000551406
0.00057868
0.000606277
0.000634172
0.000662341
0.000690756
0.000719393
0.000748223
0.000777221
0.000806357
0.000835603
0.000864926
0.000894294
0.000923671
0.000953017
0.000982287
0.00101143
0.00104039
0.0010691
0.00109747
0.00112544
0.00115289
-4.61265e-05
-4.55259e-05
-4.39101e-05
-4.13902e-05
-3.79588e-05
-3.36184e-05
-2.83735e-05
-2.22295e-05
-1.51923e-05
-7.26921e-06
1.53197e-06
1.12024e-05
2.17325e-05
3.31118e-05
4.53288e-05
5.83716e-05
7.22273e-05
8.6882e-05
0.000102322
0.000118531
0.000135493
0.000153193
0.000171613
0.000190735
0.00021054
0.00023101
0.000252125
0.000273864
0.000296207
0.000319132
0.000342618
0.000366643
0.000391184
0.000416218
0.000441722
0.000467671
0.000494042
0.00052081
0.000547951
0.000575438
0.000603247
0.000631352
0.000659726
0.000688343
0.000717175
0.000746195
0.000775373
0.00080468
0.000834084
0.000863553
0.000893053
0.000922544
0.000951986
0.000981335
0.00101054
0.00103954
0.00106828
0.00109669
0.00112469
0.0011522
-5.56844e-05
-5.50777e-05
-5.34452e-05
-5.08994e-05
-4.74325e-05
-4.30473e-05
-3.77484e-05
-3.15411e-05
-2.44315e-05
-1.6427e-05
-7.53555e-06
2.23396e-06
1.28717e-05
2.43671e-05
3.67085e-05
4.98838e-05
6.38798e-05
7.86827e-05
9.42778e-05
0.00011065
0.000127782
0.000145659
0.000164262
0.000183573
0.000203573
0.000224244
0.000245565
0.000267515
0.000290074
0.00031322
0.000336931
0.000361184
0.000385956
0.000411223
0.000436963
0.00046315
0.00048976
0.000516768
0.000544148
0.000571875
0.000599921
0.000628262
0.000656869
0.000685714
0.00071477
0.000744008
0.000773396
0.000802905
0.000832501
0.000862152
0.00089182
0.000921467
0.000951051
0.000980528
0.00100985
0.00103896
0.0010678
0.00109631
0.00112442
0.00115207
-6.617e-05
-6.55566e-05
-6.39058e-05
-6.13313e-05
-5.78255e-05
-5.33911e-05
-4.80328e-05
-4.17559e-05
-3.45668e-05
-2.64728e-05
-1.74821e-05
-7.60376e-06
3.15231e-06
1.47753e-05
2.72534e-05
4.05744e-05
5.47247e-05
6.96903e-05
8.54564e-05
0.000102007
0.000119326
0.000137397
0.000156201
0.000175721
0.000195936
0.000216828
0.000238375
0.000260558
0.000283355
0.000306743
0.000330701
0.000355204
0.000380231
0.000405756
0.000431756
0.000458206
0.00048508
0.000512353
0.000539999
0.000567991
0.000596302
0.000624906
0.000653773
0.000682876
0.000712184
0.000741669
0.000771299
0.000801043
0.000830866
0.000860733
0.000890609
0.000920454
0.000950226
0.00097988
0.00100937
0.00103864
0.00106765
0.00109633
0.00112462
0.00115247
-7.75937e-05
-7.69729e-05
-7.53021e-05
-7.26964e-05
-6.91481e-05
-6.46601e-05
-5.92369e-05
-5.28841e-05
-4.56081e-05
-3.74165e-05
-2.83174e-05
-1.83202e-05
-7.43498e-06
4.32728e-06
1.69547e-05
3.04345e-05
4.47533e-05
5.98966e-05
7.58493e-05
9.25955e-05
0.000110119
0.000128401
0.000147425
0.000167172
0.000187622
0.000208755
0.00023055
0.000252987
0.000276043
0.000299696
0.000323924
0.000348702
0.000374007
0.000399814
0.000426099
0.000452837
0.000480001
0.000507565
0.000535503
0.000563787
0.000592391
0.000621285
0.000650441
0.000679831
0.000709422
0.000739186
0.00076909
0.000799101
0.000829186
0.000859308
0.00088943
0.000919514
0.000949518
0.000979398
0.00100911
0.0010386
0.00106783
0.00109673
0.00112526
0.00115336
-8.9967e-05
-8.93382e-05
-8.76456e-05
-8.50061e-05
-8.14117e-05
-7.68653e-05
-7.13717e-05
-6.49365e-05
-5.75662e-05
-4.92686e-05
-4.00519e-05
-2.99258e-05
-1.89003e-05
-6.98688e-06
5.8025e-06
1.94549e-05
3.39564e-05
4.92926e-05
6.54479e-05
8.24061e-05
0.00010015
0.000118663
0.000137926
0.000157919
0.000178623
0.000200018
0.000222083
0.000244795
0.000268134
0.000292075
0.000316595
0.000341672
0.00036728
0.000393394
0.00041999
0.000447041
0.000474521
0.000502403
0.00053066
0.000559265
0.000588188
0.000617402
0.000646877
0.000676583
0.000706489
0.000736563
0.000766774
0.000797087
0.000827468
0.000857882
0.000888291
0.000918655
0.000948934
0.000979086
0.00100907
0.00103883
0.00106832
0.00109751
0.00112632
0.00115473
-0.000103302
-0.000102665
-0.000100949
-9.82726e-05
-9.46283e-05
-9.00189e-05
-8.44493e-05
-7.7925e-05
-7.0453e-05
-6.20408e-05
-5.26971e-05
-4.24316e-05
-3.12548e-05
-1.9178e-05
-6.2137e-06
7.62501e-06
2.2324e-05
3.78684e-05
5.42426e-05
7.14299e-05
8.94131e-05
0.000108174
0.000127694
0.000147954
0.000168934
0.000190612
0.000212967
0.000235977
0.000259621
0.000283873
0.000308711
0.00033411
0.000360046
0.000386493
0.000413424
0.000440815
0.000468638
0.000496866
0.00052547
0.000554423
0.000583696
0.000613259
0.000643082
0.000673135
0.000703386
0.000733804
0.000764355
0.000795005
0.000825719
0.000856462
0.000887195
0.000917881
0.000948479
0.000978946
0.00100924
0.00103932
0.00106914
0.00109864
0.0011278
0.00115656
-0.000117613
-0.000116966
-0.000115225
-0.000112509
-0.000108811
-0.000104134
-9.84826e-05
-9.18626e-05
-8.4281e-05
-7.57456e-05
-6.62654e-05
-5.585e-05
-4.45102e-05
-3.22578e-05
-1.91053e-05
-5.06619e-06
9.8452e-06
2.56136e-05
4.22231e-05
5.96568e-05
7.7897e-05
9.69253e-05
0.000116723
0.000137269
0.000158544
0.000180527
0.000203195
0.000226526
0.000250498
0.000275085
0.000300265
0.000326012
0.0003523
0.000379105
0.0004064
0.000434157
0.00046235
0.000490951
0.000519931
0.000549261
0.000578912
0.000608855
0.000639057
0.000669489
0.000700118
0.000730912
0.000761836
0.000792858
0.000823942
0.000855051
0.000886149
0.000917196
0.000948153
0.000978979
0.00100963
0.00104007
0.00107025
0.00110013
0.00112967
0.00115882
-0.000132913
-0.000132256
-0.000130488
-0.00012773
-0.000123975
-0.000119225
-0.000113486
-0.000106763
-9.9064e-05
-9.03966e-05
-8.07699e-05
-7.01939e-05
-5.86795e-05
-4.62389e-05
-3.28847e-05
-1.86307e-05
-3.49172e-06
1.25168e-05
2.93785e-05
4.70762e-05
6.55918e-05
8.49066e-05
0.000105001
0.000125855
0.000147447
0.000169756
0.00019276
0.000216435
0.000240758
0.000265705
0.000291251
0.000317371
0.000344038
0.000371228
0.000398912
0.000427064
0.000455655
0.000484657
0.000514041
0.000543778
0.000573838
0.00060419
0.000634803
0.000665645
0.000696685
0.000727888
0.000759221
0.00079065
0.000822139
0.000853652
0.000885152
0.0009166
0.000947957
0.000979184
0.00101024
0.00104108
0.00107167
0.00110197
0.00113193
0.00116151
-0.000149218
-0.000148551
-0.000146753
-0.000143951
-0.000140134
-0.000135307
-0.000129474
-0.000122641
-0.000114817
-0.000106008
-9.62249e-05
-8.54773e-05
-7.37764e-05
-6.11345e-05
-4.75649e-05
-3.30814e-05
-1.76993e-05
-1.43423e-06
1.56969e-05
3.36766e-05
5.24865e-05
7.21072e-05
9.2519e-05
0.000113701
0.000135632
0.00015829
0.000181652
0.000205694
0.000230393
0.000255725
0.000281662
0.000308181
0.000335254
0.000362855
0.000390956
0.00041953
0.000448548
0.00047798
0.000507798
0.000537972
0.000568471
0.000599264
0.000630319
0.000661604
0.000693087
0.000724734
0.00075651
0.000788382
0.000820313
0.000852267
0.000884207
0.000916095
0.000947893
0.000979561
0.00101106
0.00104235
0.00107339
0.00110414
0.00113456
0.00116461
-0.000166545
-0.000165866
-0.000164038
-0.000161187
-0.000157305
-0.000152395
-0.000146462
-0.000139513
-0.000131555
-0.000122596
-0.000112646
-0.000101715
-8.98155e-05
-7.69593e-05
-6.316e-05
-4.84321e-05
-3.27908e-05
-1.62525e-05
1.16572e-06
1.94459e-05
3.85692e-05
5.85159e-05
7.92658e-05
0.000100798
0.00012309
0.000146119
0.000169863
0.000194297
0.000219396
0.000245137
0.000271492
0.000298436
0.000325942
0.000353982
0.000382528
0.000411552
0.000441025
0.000470918
0.0005012
0.000531841
0.00056281
0.000594075
0.000625605
0.000657366
0.000689326
0.00072145
0.000753704
0.000786054
0.000818463
0.000850895
0.000883313
0.00091568
0.000947957
0.000980106
0.00101209
0.00104386
0.00107539
0.00110664
0.00113756
0.00116812
-0.000184911
-0.00018422
-0.000182359
-0.000179457
-0.000175506
-0.000170508
-0.000164468
-0.000157395
-0.000149294
-0.000140176
-0.000130048
-0.000118923
-0.000106812
-9.37284e-05
-7.9685e-05
-6.46972e-05
-4.87806e-05
-3.19518e-05
-1.42285e-05
4.37094e-06
2.38273e-05
4.41205e-05
6.52296e-05
8.71331e-05
0.000109809
0.000133233
0.000157382
0.000182232
0.000207758
0.000233934
0.000260733
0.000288129
0.000316094
0.000344601
0.000373621
0.000403125
0.000433083
0.000463465
0.000494242
0.000525381
0.000556852
0.000588622
0.000620658
0.000652929
0.000685399
0.000718035
0.000750803
0.000783666
0.00081659
0.000849537
0.000882471
0.000915355
0.00094815
0.000980818
0.00101332
0.00104562
0.00107768
0.00110946
0.00114092
0.00117202
-0.000204335
-0.000203632
-0.000201736
-0.00019878
-0.000194754
-0.000189663
-0.000183511
-0.000176305
-0.000168054
-0.000158766
-0.00014845
-0.000137119
-0.000124784
-0.000111458
-9.71559e-05
-8.18924e-05
-6.56837e-05
-4.8547e-05
-3.05001e-05
-1.1562e-05
8.24752e-06
2.8908e-05
5.03981e-05
7.26956e-05
9.57776e-05
0.000119621
0.0001442
0.000169491
0.000195469
0.000222106
0.000249376
0.000277251
0.000305705
0.000334707
0.000364229
0.000394242
0.000424715
0.000455618
0.00048692
0.000518589
0.000550594
0.000582901
0.000615478
0.000648291
0.000681306
0.000714489
0.000747805
0.000781218
0.000814693
0.000848192
0.000881679
0.000915117
0.000948468
0.000981694
0.00101476
0.00104762
0.00108024
0.00111259
0.00114463
0.00117631
-0.000224837
-0.00022412
-0.000222187
-0.000219174
-0.00021507
-0.000209879
-0.000203608
-0.000196263
-0.000187852
-0.000178384
-0.000167869
-0.00015632
-0.000143747
-0.000130166
-0.000115589
-0.000100034
-8.35162e-05
-6.60535e-05
-4.76642e-05
-2.83677e-05
-8.18437e-06
1.28648e-05
3.4758e-05
5.74725e-05
8.09848e-05
0.000105271
0.000130306
0.000156064
0.000182519
0.000209644
0.000237412
0.000265796
0.000294765
0.000324292
0.000354346
0.000384898
0.000415917
0.000447372
0.000479231
0.000511462
0.000544033
0.00057691
0.000610061
0.000643451
0.000677045
0.00071081
0.00074471
0.000778709
0.000812771
0.000846859
0.000880936
0.000914966
0.000948911
0.000982733
0.00101639
0.00104986
0.00108309
0.00111604
0.00114869
0.00118099
-0.000246438
-0.000245706
-0.000243735
-0.00024066
-0.000236474
-0.000231179
-0.000224781
-0.000217288
-0.000208708
-0.00019905
-0.000188325
-0.000176545
-0.000163721
-0.000149869
-0.000135003
-0.00011914
-0.000102295
-8.44878e-05
-6.57367e-05
-4.60616e-05
-2.54834e-05
-4.0235e-06
1.82955e-05
4.14504e-05
6.54171e-05
9.0171e-05
0.000115687
0.000141938
0.000168898
0.000196539
0.000224833
0.000253753
0.000283268
0.000313349
0.000343965
0.000375087
0.000406683
0.000438721
0.000471169
0.000503994
0.000537164
0.000570645
0.000604404
0.000638405
0.000672614
0.000706996
0.000741515
0.000776136
0.000810821
0.000845535
0.000880241
0.0009149
0.000949476
0.000983932
0.00101823
0.00105233
0.0010862
0.0011198
0.00115309
0.00118604
-0.000269159
-0.000268412
-0.0002664
-0.000263261
-0.000258987
-0.000253582
-0.000247051
-0.000239402
-0.000230644
-0.000220786
-0.000209838
-0.000197814
-0.000184726
-0.000170588
-0.000155417
-0.000139227
-0.000122038
-0.000103867
-8.47346e-05
-6.46601e-05
-4.36652e-05
-2.17722e-05
9.95828e-07
2.46152e-05
4.90612e-05
7.43084e-05
0.000100331
0.000127102
0.000154594
0.000182779
0.000211629
0.000241113
0.000271203
0.000301869
0.000333078
0.000364801
0.000397005
0.000429659
0.000462728
0.000496182
0.000529984
0.000564103
0.000598503
0.00063315
0.000668009
0.000703043
0.000738218
0.000773497
0.000808843
0.00084422
0.00087959
0.000914916
0.000950162
0.000985288
0.00102026
0.00105504
0.00108958
0.00112386
0.00115784
0.00119147
-0.000293025
-0.000292263
-0.000290207
-0.000287
-0.000282634
-0.000277113
-0.000270441
-0.000262628
-0.000253681
-0.000243612
-0.00023243
-0.000220149
-0.000206781
-0.000192343
-0.000176849
-0.000160317
-0.000142764
-0.000124211
-0.000104676
-8.41802e-05
-6.27466e-05
-4.03975e-05
-1.71564e-05
6.95205e-06
3.19027e-05
5.76694e-05
8.42257e-05
0.000111544
0.000139596
0.000168354
0.000197787
0.000227867
0.000258563
0.000289843
0.000321677
0.000354033
0.000386878
0.000420179
0.000453904
0.000488018
0.000522488
0.000557279
0.000592356
0.000627684
0.000663227
0.00069895
0.000734817
0.00077079
0.000806834
0.00084291
0.000878982
0.000915013
0.000950965
0.0009868
0.00102248
0.00105797
0.00109323
0.00112823
0.00116292
0.00119727
-0.000318061
-0.000317281
-0.000315179
-0.000311902
-0.000307439
-0.000301794
-0.000294975
-0.000286988
-0.000277844
-0.000267551
-0.000256123
-0.000243571
-0.00022991
-0.000215154
-0.000199321
-0.000182428
-0.000164493
-0.000145536
-0.000125578
-0.00010464
-8.2745e-05
-5.9916e-05
-3.61775e-05
-1.15546e-05
1.39267e-05
4.02397e-05
6.73571e-05
9.52508e-05
0.000123892
0.000153251
0.000183299
0.000214004
0.000245336
0.000277264
0.000309754
0.000342775
0.000376293
0.000410276
0.000444689
0.000479498
0.000514669
0.000550167
0.000585956
0.000622001
0.000658265
0.000694713
0.000731308
0.000768012
0.00080479
0.000841604
0.000878416
0.000915188
0.000951884
0.000988465
0.00102489
0.00106113
0.00109714
0.00113289
0.00116834
0.00120345
-0.000344291
-0.000343494
-0.000341344
-0.000337992
-0.000333427
-0.000327653
-0.000320678
-0.000312509
-0.000303156
-0.000292629
-0.000280941
-0.000268104
-0.000254134
-0.000239045
-0.000222856
-0.000205583
-0.000187246
-0.000167865
-0.000147462
-0.000126059
-0.000103679
-8.03455e-05
-5.60843e-05
-3.09211e-05
-4.88247e-06
2.20043e-05
4.97109e-05
7.82087e-05
0.000107468
0.000137459
0.000168152
0.000199514
0.000231514
0.00026412
0.000297299
0.000331018
0.000365243
0.000399941
0.000435077
0.000470616
0.000506523
0.000542763
0.0005793
0.000616097
0.000653119
0.000690328
0.000727688
0.000765161
0.00080271
0.000840298
0.000877887
0.000915439
0.000952916
0.00099028
0.00102749
0.00106452
0.00110132
0.00113786
0.0011741
0.00121
-0.000371745
-0.000370929
-0.000368729
-0.000365297
-0.000360625
-0.000354715
-0.000347576
-0.000339216
-0.000329643
-0.00031887
-0.000306909
-0.000293773
-0.000279478
-0.000264039
-0.000247475
-0.000229803
-0.000211044
-0.000191219
-0.000170348
-0.000148457
-0.000125567
-0.000101705
-7.68949e-05
-5.11646e-05
-2.45412e-05
2.94736e-06
3.12721e-05
6.04036e-05
9.03116e-05
0.000120965
0.000152333
0.000184384
0.000217084
0.000250401
0.000284302
0.000318753
0.00035372
0.000389167
0.000425061
0.000461365
0.000498043
0.000535061
0.000572382
0.000609968
0.000647784
0.000685791
0.000723953
0.000762232
0.000800591
0.000838991
0.000877395
0.000915764
0.00095406
0.000992246
0.00103028
0.00106813
0.00110576
0.00114312
0.00118019
0.00121692
-0.00040045
-0.000399615
-0.000397361
-0.000393847
-0.000389061
-0.000383009
-0.000375698
-0.000367136
-0.000357334
-0.000346302
-0.000334054
-0.000320604
-0.000305968
-0.000290161
-0.000273203
-0.000255113
-0.000235911
-0.000215618
-0.000194258
-0.000171854
-0.00014843
-0.000124012
-9.86277e-05
-7.2303e-05
-4.50666e-05
-1.69473e-05
1.20251e-05
4.18204e-05
7.24077e-05
0.000103755
0.000135831
0.000168602
0.000202036
0.000236098
0.000270755
0.000305972
0.000341714
0.000377946
0.000414632
0.000451737
0.000489224
0.000527056
0.000565197
0.000603609
0.000642256
0.000681099
0.000720101
0.000759223
0.000798429
0.000837679
0.000876936
0.00091616
0.000955314
0.000994359
0.00103326
0.00107197
0.00111046
0.00114868
0.00118661
0.0012242
-0.000430438
-0.000429581
-0.000427272
-0.000423671
-0.000418767
-0.000412565
-0.000405073
-0.0003963
-0.000386255
-0.000374952
-0.000362403
-0.000348624
-0.000333629
-0.000317437
-0.000300066
-0.000281537
-0.00026187
-0.000241088
-0.000219214
-0.000196272
-0.000172289
-0.000147289
-0.000121302
-9.43549e-05
-6.64766e-05
-3.76969e-05
-8.04641e-06
2.24438e-05
5.37419e-05
8.58155e-05
0.000118632
0.000152157
0.000186357
0.000221199
0.000256646
0.000292664
0.000329217
0.000366269
0.000403785
0.000441726
0.000480057
0.000518741
0.000557739
0.000597015
0.00063653
0.000676246
0.000716126
0.00075613
0.000796221
0.00083636
0.000876508
0.000916626
0.000956675
0.000996617
0.00103641
0.00107603
0.00111541
0.00115454
0.00119337
0.00123186
-0.000461739
-0.000460861
-0.000458493
-0.0004548
-0.000449772
-0.000443413
-0.000435731
-0.000426736
-0.000416438
-0.00040485
-0.000391986
-0.00037786
-0.00036249
-0.000345893
-0.00032809
-0.0003091
-0.000288946
-0.000267651
-0.000245238
-0.000221734
-0.000197165
-0.000171557
-0.000144939
-0.00011734
-8.87897e-05
-5.93191e-05
-2.89594e-05
2.25747e-06
3.42988e-05
6.71315e-05
0.000100722
0.000135035
0.000170037
0.000205692
0.000241965
0.00027882
0.00031622
0.000354129
0.000392509
0.000431325
0.000470537
0.000510109
0.000550003
0.000590179
0.000630601
0.000671229
0.000712025
0.00075295
0.000793965
0.00083503
0.000876108
0.000917158
0.000958142
0.000999021
0.00103975
0.0010803
0.00112063
0.0011607
0.00120047
0.0012399
-0.000494388
-0.000493487
-0.000491058
-0.000487269
-0.00048211
-0.000475586
-0.000467706
-0.000458478
-0.000447914
-0.000436027
-0.000422831
-0.000408343
-0.000392579
-0.000375559
-0.000357302
-0.00033783
-0.000317166
-0.000295333
-0.000272357
-0.000248264
-0.000223081
-0.000196836
-0.000169558
-0.000141278
-0.000112025
-8.18324e-05
-5.07314e-05
-1.87552e-05
1.40627e-05
4.76882e-05
8.20866e-05
0.000117223
0.000153061
0.000189566
0.0002267
0.000264428
0.000302712
0.000341514
0.000380798
0.000420524
0.000460656
0.000501155
0.000541982
0.000583098
0.000624465
0.000666043
0.000707794
0.000749678
0.000791656
0.000833688
0.000875734
0.000917756
0.000959714
0.00100157
0.00104328
0.0010848
0.00112611
0.00116715
0.0012079
0.0012483
-0.000528419
-0.000527495
-0.000525001
-0.000521112
-0.000515816
-0.000509119
-0.00050103
-0.000491558
-0.000480715
-0.000468515
-0.000454973
-0.000440104
-0.000423928
-0.000406464
-0.000387732
-0.000367755
-0.000346557
-0.000324162
-0.000300596
-0.000275886
-0.000250061
-0.00022315
-0.000195183
-0.00016619
-0.000136203
-0.000105256
-7.33807e-05
-4.06115e-05
-6.9829e-06
2.74701e-05
6.27119e-05
9.87066e-05
0.000135418
0.000172808
0.000210841
0.000249479
0.000288684
0.000328417
0.000368641
0.000409318
0.000450407
0.000491871
0.00053367
0.000575764
0.000618115
0.000660683
0.000703428
0.000746311
0.000789291
0.000832328
0.000875384
0.000918417
0.000961387
0.00100426
0.00104698
0.00108953
0.00113185
0.00117391
0.00121567
0.00125708
-0.00056387
-0.000562921
-0.000560359
-0.000556365
-0.000550925
-0.000544047
-0.000535739
-0.000526011
-0.000514876
-0.000502348
-0.000488442
-0.000473176
-0.000456568
-0.000438638
-0.000419409
-0.000398904
-0.000377147
-0.000354163
-0.00032998
-0.000304627
-0.000278131
-0.000250523
-0.000221835
-0.000192098
-0.000161345
-0.000129609
-9.6926e-05
-6.33294e-05
-2.8855e-05
6.46107e-06
4.25824e-05
7.94719e-05
0.000117092
0.000155406
0.000194375
0.000233961
0.000274124
0.000314828
0.000356031
0.000397696
0.000439782
0.00048225
0.00052506
0.000568172
0.000611547
0.000655144
0.000698923
0.000742844
0.000786867
0.00083095
0.000875053
0.000919138
0.000963162
0.00100708
0.00105087
0.00109447
0.00113784
0.00118096
0.00122377
0.00126624
-0.000600779
-0.000599804
-0.000597171
-0.000593066
-0.000587476
-0.000580408
-0.000571871
-0.000561875
-0.000550434
-0.000537562
-0.000523275
-0.000507592
-0.000490532
-0.000472115
-0.000452366
-0.000431308
-0.000408965
-0.000385367
-0.000360539
-0.000334511
-0.000307314
-0.000278979
-0.000249538
-0.000219024
-0.000187471
-0.000154913
-0.000121387
-8.69273e-05
-5.15711e-05
-1.53554e-05
2.16824e-05
5.95043e-05
9.8072e-05
0.000137347
0.00017729
0.000217862
0.000259024
0.000300736
0.000342958
0.00038565
0.000428773
0.000472285
0.000516146
0.000560317
0.000604755
0.000649422
0.000694275
0.000739275
0.00078438
0.000829549
0.000874742
0.000919918
0.000965035
0.00101005
0.00105493
0.00109963
0.0011441
0.00118831
0.00123222
0.00127578
-0.000639186
-0.000638184
-0.000635477
-0.000631256
-0.000625509
-0.000618241
-0.000609464
-0.000599187
-0.000587425
-0.000574193
-0.000559508
-0.000543388
-0.000525854
-0.000506929
-0.000486635
-0.000464998
-0.000442044
-0.000417802
-0.000392299
-0.000365568
-0.000337639
-0.000308544
-0.000278317
-0.000246992
-0.000214604
-0.000181189
-0.000146783
-0.000111424
-7.51491e-05
-3.79962e-05
-4.035e-09
3.87885e-05
7.83421e-05
0.000118617
0.000159574
0.000201172
0.000243372
0.000286132
0.000329413
0.000373173
0.000417372
0.000461968
0.000506921
0.00055219
0.000597734
0.00064351
0.000689479
0.000735598
0.000781826
0.000828123
0.000874446
0.000920754
0.000967005
0.00101316
0.00105917
0.00110501
0.00115062
0.00119597
0.00124101
0.00128571
-0.000679135
-0.000678104
-0.000675319
-0.000670977
-0.000665064
-0.000657588
-0.000648559
-0.000637988
-0.00062589
-0.000612281
-0.000597178
-0.000580601
-0.000562572
-0.000543113
-0.000522249
-0.000500007
-0.000476414
-0.000451499
-0.000425293
-0.000397826
-0.000369132
-0.000339244
-0.000308196
-0.000276025
-0.000242767
-0.000208458
-0.000173136
-0.00013684
-9.96076e-05
-6.14789e-05
-2.24933e-05
1.73092e-05
5.78883e-05
9.92034e-05
0.000141214
0.000183878
0.000227156
0.000271006
0.000315386
0.000360255
0.000405571
0.000451293
0.000497379
0.000543788
0.000590477
0.000637405
0.000684529
0.000731809
0.000779203
0.000826668
0.000874162
0.000921644
0.000969071
0.0010164
0.0010636
0.00111061
0.0011574
0.00120392
0.00125014
0.00129602
-0.000720669
-0.000719608
-0.000716742
-0.000712272
-0.000706187
-0.000698492
-0.000689199
-0.00067832
-0.00066587
-0.000651866
-0.000636326
-0.00061927
-0.000600722
-0.000580706
-0.000559246
-0.000536371
-0.00051211
-0.000486492
-0.000459549
-0.000431314
-0.000401821
-0.000371106
-0.000339203
-0.000306149
-0.000271983
-0.000236742
-0.000200466
-0.000163194
-0.000124965
-8.58212e-05
-4.58022e-05
-4.94937e-06
3.66959e-05
7.90919e-05
0.000122197
0.000165969
0.000210366
0.000255347
0.000300867
0.000346887
0.000393362
0.000440251
0.000487512
0.000535102
0.000582979
0.0006311
0.000679423
0.000727906
0.000776506
0.000825181
0.000873889
0.000922586
0.000971232
0.00101978
0.0010682
0.00111643
0.00116444
0.00121219
0.00125962
0.00130671
-0.000763836
-0.000762744
-0.000759792
-0.000755189
-0.000748922
-0.000740998
-0.000731428
-0.000720227
-0.000707408
-0.00069299
-0.000676992
-0.000659436
-0.000640345
-0.000619745
-0.000597662
-0.000574125
-0.000549165
-0.000522812
-0.000495101
-0.000466064
-0.000435738
-0.000404158
-0.000371362
-0.000337389
-0.000302277
-0.000266066
-0.000228795
-0.000190507
-0.000151242
-0.000111041
-6.99477e-05
-2.80032e-05
1.47498e-05
5.82686e-05
0.00010251
0.000147432
0.000192991
0.000239144
0.000285848
0.00033306
0.000380737
0.000428836
0.000477313
0.000526127
0.000575234
0.00062459
0.000674154
0.000723882
0.000773731
0.000823659
0.000873623
0.000923579
0.000973484
0.0010233
0.00107297
0.00112247
0.00117174
0.00122075
0.00126945
0.0013178
-0.000808684
-0.000807559
-0.000804517
-0.000799775
-0.000793317
-0.000785153
-0.000775294
-0.000763754
-0.000750549
-0.000735697
-0.00071922
-0.00070114
-0.000681481
-0.00066027
-0.000637535
-0.000613307
-0.000587616
-0.000560496
-0.000531981
-0.000502107
-0.000470911
-0.00043843
-0.000404704
-0.000369771
-0.000333673