/*--------------------------------*- C++ -*----------------------------------*\
  =========                 |
  \\      /  F ield         | OpenFOAM: The Open Source CFD Toolbox
   \\    /   O peration     | Website:  https://openfoam.org
    \\  /    A nd           | Version:  8
     \\/     M anipulation  |
\*---------------------------------------------------------------------------*/
FoamFile
{
    version     2.0;
    format      ascii;
    class       surfaceScalarField;
    location    "2.5";
    object      phi;
}
// * * * * * * * * * * * * * * * * * * * * * * * * * * * * * * * * * * * * * //

dimensions      [0 3 -1 0 0 0 0];

internalField   nonuniform List<scalar> 
22960
(
-1.91411e-07
1.91411e-07
-4.07757e-07
2.16346e-07
-6.2471e-07
2.16953e-07
-8.41062e-07
2.16352e-07
-1.05658e-06
2.15513e-07
-1.27104e-06
2.14463e-07
-1.48424e-06
2.13203e-07
-1.69597e-06
2.11733e-07
-1.90603e-06
2.10056e-07
-2.11421e-06
2.08175e-07
-2.3203e-06
2.06092e-07
-2.52411e-06
2.03811e-07
-2.72544e-06
2.01334e-07
-2.92411e-06
1.98666e-07
-3.11992e-06
1.95811e-07
-3.31269e-06
1.92774e-07
-3.50225e-06
1.89558e-07
-3.68842e-06
1.86169e-07
-3.87104e-06
1.82613e-07
-4.04993e-06
1.78895e-07
-4.22495e-06
1.75021e-07
-4.39595e-06
1.70996e-07
-4.56278e-06
1.66829e-07
-4.7253e-06
1.62526e-07
-4.88339e-06
1.58093e-07
-5.03693e-06
1.53539e-07
-5.18581e-06
1.48873e-07
-5.32991e-06
1.44102e-07
-5.46915e-06
1.39237e-07
-5.60343e-06
1.34287e-07
-5.7327e-06
1.29263e-07
-5.85688e-06
1.24178e-07
-5.97592e-06
1.19043e-07
-6.08979e-06
1.13874e-07
-6.19848e-06
1.08687e-07
-6.30198e-06
1.03498e-07
-6.40031e-06
9.83304e-08
-6.49351e-06
9.32061e-08
-6.58167e-06
8.81534e-08
-6.66487e-06
8.3205e-08
-6.74327e-06
7.84004e-08
-6.81706e-06
7.37873e-08
-6.88649e-06
6.9425e-08
-6.95187e-06
6.53878e-08
-7.01364e-06
6.17707e-08
-7.07234e-06
5.86971e-08
-7.12867e-06
5.63311e-08
-7.18357e-06
5.48958e-08
-7.23827e-06
5.47018e-08
-7.29446e-06
5.61924e-08
-7.35448e-06
6.00185e-08
-7.42165e-06
6.71738e-08
-7.50089e-06
7.92313e-08
-7.59967e-06
9.87865e-08
-7.72999e-06
1.30314e-07
-7.91199e-06
1.82e-07
-8.18135e-06
2.69361e-07
-8.58894e-06
4.07591e-07
-9.34933e-06
7.60396e-07
1.17327e-06
-1.05226e-05
-2.1672e-07
4.08131e-07
-4.60195e-07
4.59821e-07
-7.0438e-07
4.61138e-07
-9.47912e-07
4.59884e-07
-1.19051e-06
4.58107e-07
-1.43192e-06
4.55876e-07
-1.67191e-06
4.53195e-07
-1.91025e-06
4.50069e-07
-2.14669e-06
4.46503e-07
-2.38102e-06
4.42501e-07
-2.613e-06
4.38071e-07
-2.8424e-06
4.33218e-07
-3.06902e-06
4.2795e-07
-3.29263e-06
4.22276e-07
-3.51302e-06
4.16204e-07
-3.72999e-06
4.09743e-07
-3.94334e-06
4.02904e-07
-4.15287e-06
3.95697e-07
-4.35839e-06
3.88134e-07
-4.55972e-06
3.80226e-07
-4.75668e-06
3.71987e-07
-4.94912e-06
3.63428e-07
-5.13685e-06
3.54565e-07
-5.31974e-06
3.45413e-07
-5.49763e-06
3.35986e-07
-5.67039e-06
3.26301e-07
-5.8379e-06
3.16376e-07
-6.00003e-06
3.0623e-07
-6.15667e-06
2.95882e-07
-6.30774e-06
2.85353e-07
-6.45314e-06
2.74667e-07
-6.59281e-06
2.63848e-07
-6.72669e-06
2.52924e-07
-6.85474e-06
2.41925e-07
-6.97694e-06
2.30885e-07
-7.09329e-06
2.19842e-07
-7.20379e-06
2.08839e-07
-7.30851e-06
1.97925e-07
-7.40752e-06
1.87158e-07
-7.50092e-06
1.76607e-07
-7.58887e-06
1.66353e-07
-7.67158e-06
1.56496e-07
-7.74931e-06
1.47157e-07
-7.82241e-06
1.38489e-07
-7.89133e-06
1.30685e-07
-7.95663e-06
1.23997e-07
-8.01905e-06
1.18755e-07
-8.07956e-06
1.15402e-07
-8.1394e-06
1.14548e-07
-8.20026e-06
1.17053e-07
-8.26439e-06
1.24148e-07
-8.33488e-06
1.37664e-07
-8.41604e-06
1.60392e-07
-8.51399e-06
1.96738e-07
-8.63757e-06
2.53889e-07
-8.79961e-06
3.44038e-07
-9.01842e-06
4.8817e-07
-9.32722e-06
7.16394e-07
-9.74571e-06
1.17888e-06
1.57969e-06
-1.01521e-05
-2.18142e-07
6.26273e-07
-4.63245e-07
7.04924e-07
-7.09029e-07
7.06923e-07
-9.54146e-07
7.05001e-07
-1.19832e-06
7.02277e-07
-1.4413e-06
6.98855e-07
-1.68284e-06
6.94744e-07
-1.92272e-06
6.89949e-07
-2.1607e-06
6.84479e-07
-2.39654e-06
6.78341e-07
-2.63002e-06
6.71545e-07
-2.8609e-06
6.64101e-07
-3.08897e-06
6.56021e-07
-3.31401e-06
6.47318e-07
-3.53581e-06
6.38004e-07
-3.75416e-06
6.28095e-07
-3.96886e-06
6.17604e-07
-4.17972e-06
6.0655e-07
-4.38653e-06
5.94949e-07
-4.58912e-06
5.8282e-07
-4.78732e-06
5.70181e-07
-4.98094e-06
5.57053e-07
-5.16984e-06
5.43458e-07
-5.35384e-06
5.29418e-07
-5.53281e-06
5.14957e-07
-5.70661e-06
5.001e-07
-5.87511e-06
4.84874e-07
-6.03819e-06
4.69307e-07
-6.19573e-06
4.53429e-07
-6.34765e-06
4.37272e-07
-6.49386e-06
4.20872e-07
-6.63428e-06
4.04266e-07
-6.76885e-06
3.87496e-07
-6.89753e-06
3.70606e-07
-7.02029e-06
3.53649e-07
-7.13713e-06
3.3668e-07
-7.24805e-06
3.19764e-07
-7.3531e-06
3.02975e-07
-7.45234e-06
2.86399e-07
-7.54587e-06
2.70136e-07
-7.63383e-06
2.54308e-07
-7.71639e-06
2.39058e-07
-7.7938e-06
2.24564e-07
-7.86636e-06
2.11046e-07
-7.93445e-06
1.98781e-07
-7.99858e-06
1.88122e-07
-8.05935e-06
1.7953e-07
-8.11757e-06
1.73616e-07
-8.17422e-06
1.712e-07
-8.23058e-06
1.73411e-07
-8.28825e-06
1.81824e-07
-8.34927e-06
1.98681e-07
-8.41611e-06
2.27237e-07
-8.49168e-06
2.72303e-07
-8.57889e-06
3.41098e-07
-8.67943e-06
4.44582e-07
-8.79042e-06
5.99161e-07
-8.9032e-06
8.29169e-07
-8.91862e-06
1.1943e-06
1.55678e-06
-8.89571e-06
-2.18785e-07
8.45058e-07
-4.64636e-07
9.50774e-07
-7.11161e-07
9.53448e-07
-9.57013e-07
9.50853e-07
-1.20191e-06
9.47177e-07
-1.44562e-06
9.4256e-07
-1.68788e-06
9.37011e-07
-1.92848e-06
9.3054e-07
-2.16715e-06
9.23157e-07
-2.40369e-06
9.14873e-07
-2.63784e-06
9.05701e-07
-2.86939e-06
8.95654e-07
-3.09812e-06
8.84749e-07
-3.32381e-06
8.73003e-07
-3.54623e-06
8.60432e-07
-3.7652e-06
8.47058e-07
-3.98049e-06
8.329e-07
-4.19192e-06
8.1798e-07
-4.3993e-06
8.02323e-07
-4.60243e-06
7.85951e-07
-4.80114e-06
7.68893e-07
-4.99526e-06
7.51173e-07
-5.18462e-06
7.32823e-07
-5.36908e-06
7.13871e-07
-5.54847e-06
6.9435e-07
-5.72266e-06
6.74293e-07
-5.89153e-06
6.53736e-07
-6.05494e-06
6.32717e-07
-6.21278e-06
6.11276e-07
-6.36497e-06
5.89456e-07
-6.5114e-06
5.67303e-07
-6.652e-06
5.44868e-07
-6.78671e-06
5.22204e-07
-6.91548e-06
4.99373e-07
-7.03827e-06
4.7644e-07
-7.15507e-06
4.5348e-07
-7.26588e-06
4.30576e-07
-7.37073e-06
4.07825e-07
-7.46967e-06
3.85336e-07
-7.56277e-06
3.6324e-07
-7.65015e-06
3.41689e-07
-7.73196e-06
3.20866e-07
-7.80839e-06
3.00993e-07
-7.87968e-06
2.82341e-07
-7.94615e-06
2.6525e-07
-8.00818e-06
2.50147e-07
-8.06623e-06
2.3758e-07
-8.12087e-06
2.28257e-07
-8.17278e-06
2.23113e-07
-8.22277e-06
2.23395e-07
-8.27173e-06
2.30783e-07
-8.32062e-06
2.47575e-07
-8.37031e-06
2.76931e-07
-8.42124e-06
3.23229e-07
-8.47265e-06
3.92512e-07
-8.52106e-06
4.92992e-07
-8.55727e-06
6.3537e-07
-8.5609e-06
8.32796e-07
-8.46985e-06
1.10325e-06
1.39795e-06
-8.31101e-06
-2.19623e-07
1.06468e-06
-4.66423e-07
1.19757e-06
-7.13898e-07
1.20092e-06
-9.60695e-07
1.19765e-06
-1.20653e-06
1.19302e-06
-1.45117e-06
1.1872e-06
-1.69436e-06
1.1802e-06
-1.93586e-06
1.17204e-06
-2.17544e-06
1.16274e-06
-2.41286e-06
1.15229e-06
-2.6479e-06
1.14073e-06
-2.88031e-06
1.12807e-06
-3.10988e-06
1.11432e-06
-3.33639e-06
1.09951e-06
-3.55962e-06
1.08367e-06
-3.77937e-06
1.06681e-06
-3.99542e-06
1.04896e-06
-4.20759e-06
1.03015e-06
-4.41568e-06
1.01041e-06
-4.6195e-06
9.89771e-07
-4.81887e-06
9.68265e-07
-5.01362e-06
9.45926e-07
-5.20359e-06
9.22789e-07
-5.38861e-06
8.98894e-07
-5.56854e-06
8.74279e-07
-5.74324e-06
8.48987e-07
-5.91256e-06
8.23061e-07
-6.07639e-06
7.9655e-07
-6.23462e-06
7.69503e-07
-6.38714e-06
7.41973e-07
-6.53385e-06
7.14018e-07
-6.67468e-06
6.85698e-07
-6.80956e-06
6.57081e-07
-6.93843e-06
6.28241e-07
-7.06124e-06
5.99257e-07
-7.17799e-06
5.70221e-07
-7.28864e-06
5.41233e-07
-7.39323e-06
5.12408e-07
-7.49177e-06
4.83877e-07
-7.58432e-06
4.55793e-07
-7.67097e-06
4.28334e-07
-7.75181e-06
4.01713e-07
-7.827e-06
3.76183e-07
-7.89671e-06
3.52052e-07
-7.96116e-06
3.29699e-07
-8.02061e-06
3.09592e-07
-8.07535e-06
2.92321e-07
-8.12572e-06
2.78631e-07
-8.17209e-06
2.6948e-07
-8.2148e-06
2.66104e-07
-8.25412e-06
2.70108e-07
-8.29013e-06
2.83583e-07
-8.32245e-06
3.09252e-07
-8.34984e-06
3.50618e-07
-8.36943e-06
4.12097e-07
-8.37543e-06
4.98998e-07
-8.3572e-06
6.17139e-07
-8.29611e-06
7.71709e-07
-8.15719e-06
9.64321e-07
1.17357e-06
-7.93281e-06
-2.20681e-07
1.28536e-06
-4.68675e-07
1.44557e-06
-7.17345e-07
1.44959e-06
-9.65332e-07
1.44564e-06
-1.21235e-06
1.44004e-06
-1.45816e-06
1.43301e-06
-1.70252e-06
1.42455e-06
-1.94517e-06
1.4147e-06
-2.18589e-06
1.40345e-06
-2.42443e-06
1.39083e-06
-2.66056e-06
1.37686e-06
-2.89405e-06
1.36156e-06
-3.12468e-06
1.34495e-06
-3.35223e-06
1.32706e-06
-3.57648e-06
1.30791e-06
-3.79721e-06
1.28754e-06
-4.01423e-06
1.26597e-06
-4.22733e-06
1.24325e-06
-4.43632e-06
1.2194e-06
-4.641e-06
1.19446e-06
-4.84121e-06
1.16847e-06
-5.03676e-06
1.14147e-06
-5.22748e-06
1.11351e-06
-5.41322e-06
1.08464e-06
-5.59383e-06
1.05488e-06
-5.76916e-06
1.02431e-06
-5.93907e-06
9.92972e-07
-6.10343e-06
9.60919e-07
-6.26214e-06
9.28212e-07
-6.41509e-06
8.94915e-07
-6.56216e-06
8.61095e-07
-6.70329e-06
8.26824e-07
-6.83839e-06
7.92181e-07
-6.9674e-06
7.5725e-07
-7.09027e-06
7.22126e-07
-7.20696e-06
6.86913e-07
-7.31745e-06
6.51726e-07
-7.42174e-06
6.16694e-07
-7.51983e-06
5.81966e-07
-7.61175e-06
5.47713e-07
-7.69754e-06
5.14132e-07
-7.77729e-06
4.81455e-07
-7.85106e-06
4.49956e-07
-7.91897e-06
4.19961e-07
-7.98114e-06
3.91868e-07
-8.0377e-06
3.66158e-07
-8.0888e-06
3.43421e-07
-8.13456e-06
3.24389e-07
-8.17505e-06
3.09971e-07
-8.21025e-06
3.01303e-07
-8.23994e-06
2.99796e-07
-8.26356e-06
3.07202e-07
-8.27997e-06
3.2566e-07
-8.28706e-06
3.57715e-07
-8.28122e-06
4.06251e-07
-8.25645e-06
4.74236e-07
-8.20343e-06
5.64115e-07
-8.10829e-06
6.7657e-07
-7.95188e-06
8.07913e-07
9.44729e-07
-7.72304e-06
-2.21962e-07
1.50732e-06
-4.71397e-07
1.695e-06
-7.2151e-07
1.69971e-06
-9.70935e-07
1.69506e-06
-1.21939e-06
1.68849e-06
-1.46661e-06
1.68023e-06
-1.71237e-06
1.67031e-06
-1.95641e-06
1.65874e-06
-2.1985e-06
1.64554e-06
-2.43839e-06
1.63073e-06
-2.67586e-06
1.61433e-06
-2.91066e-06
1.59636e-06
-3.14257e-06
1.57686e-06
-3.37137e-06
1.55586e-06
-3.59684e-06
1.53338e-06
-3.81877e-06
1.50947e-06
-4.03695e-06
1.48415e-06
-4.25117e-06
1.45747e-06
-4.46125e-06
1.42947e-06
-4.66698e-06
1.40019e-06
-4.8682e-06
1.36968e-06
-5.06471e-06
1.33799e-06
-5.25635e-06
1.30516e-06
-5.44297e-06
1.27125e-06
-5.62439e-06
1.23631e-06
-5.80049e-06
1.20041e-06
-5.97111e-06
1.16359e-06
-6.13613e-06
1.12594e-06
-6.29543e-06
1.08751e-06
-6.4489e-06
1.04838e-06
-6.59642e-06
1.00862e-06
-6.73792e-06
9.68322e-07
-6.87331e-06
9.27566e-07
-7.00251e-06
8.86452e-07
-7.12547e-06
8.45084e-07
-7.24213e-06
8.03577e-07
-7.35246e-06
7.62059e-07
-7.45644e-06
7.20672e-07
-7.55405e-06
6.79576e-07
-7.64529e-06
6.38955e-07
-7.73018e-06
5.99018e-07
-7.80873e-06
5.60007e-07
-7.88098e-06
5.22206e-07
-7.94696e-06
4.85947e-07
-8.00672e-06
4.51625e-07
-8.06027e-06
4.19709e-07
-8.10762e-06
3.90764e-07
-8.14869e-06
3.65467e-07
-8.18336e-06
3.44636e-07
-8.2113e-06
3.29249e-07
-8.23198e-06
3.20472e-07
-8.24445e-06
3.19674e-07
-8.2472e-06
3.28409e-07
-8.23785e-06
3.48363e-07
-8.21279e-06
3.81194e-07
-8.16678e-06
4.28219e-07
-8.0925e-06
4.89834e-07
-7.98045e-06
5.64525e-07
-7.81964e-06
6.47102e-07
7.28289e-07
-7.6032e-06
-2.23466e-07
1.73079e-06
-4.74593e-07
1.94613e-06
-7.26401e-07
1.95152e-06
-9.77513e-07
1.94617e-06
-1.22764e-06
1.93862e-06
-1.47653e-06
1.92912e-06
-1.72394e-06
1.91772e-06
-1.96961e-06
1.90441e-06
-2.21331e-06
1.88924e-06
-2.45479e-06
1.87221e-06
-2.69382e-06
1.85335e-06
-2.93015e-06
1.8327e-06
-3.16357e-06
1.81028e-06
-3.39384e-06
1.78613e-06
-3.62075e-06
1.76029e-06
-3.84408e-06
1.7328e-06
-4.06362e-06
1.70369e-06
-4.27917e-06
1.67302e-06
-4.49052e-06
1.64082e-06
-4.69749e-06
1.60716e-06
-4.89989e-06
1.57208e-06
-5.09753e-06
1.53563e-06
-5.29026e-06
1.49788e-06
-5.4779e-06
1.45889e-06
-5.66029e-06
1.41871e-06
-5.83729e-06
1.37741e-06
-6.00876e-06
1.33506e-06
-6.17455e-06
1.29174e-06
-6.33455e-06
1.24751e-06
-6.48864e-06
1.20247e-06
-6.63671e-06
1.15669e-06
-6.77866e-06
1.11027e-06
-6.91441e-06
1.06331e-06
-7.04386e-06
1.01591e-06
-7.16696e-06
9.68178e-07
-7.28363e-06
9.2025e-07
-7.39383e-06
8.72258e-07
-7.49751e-06
8.24354e-07
-7.59464e-06
7.76706e-07
-7.68519e-06
7.29506e-07
-7.76914e-06
6.82968e-07
-7.84647e-06
6.37338e-07
-7.91716e-06
5.92898e-07
-7.98119e-06
5.49975e-07
-8.03852e-06
5.08948e-07
-8.08906e-06
4.70257e-07
-8.13272e-06
4.34418e-07
-8.16929e-06
4.02034e-07
-8.19845e-06
3.73802e-07
-8.21973e-06
3.50529e-07
-8.23238e-06
3.33124e-07
-8.2353e-06
3.2259e-07
-8.22686e-06
3.19972e-07
-8.20477e-06
3.26268e-07
-8.16583e-06
3.42253e-07
-8.1058e-06
3.6819e-07
-8.01933e-06
4.03367e-07
-7.90017e-06
4.4537e-07
-7.74257e-06
4.89494e-07
5.28673e-07
-7.54295e-06
-2.25196e-07
1.95599e-06
-4.78267e-07
2.1992e-06
-7.32024e-07
2.20527e-06
-9.85076e-07
2.19923e-06
-1.23713e-06
2.19067e-06
-1.48794e-06
2.17993e-06
-1.73724e-06
2.16702e-06
-1.98479e-06
2.15196e-06
-2.23034e-06
2.13479e-06
-2.47364e-06
2.11551e-06
-2.71446e-06
2.09417e-06
-2.95256e-06
2.0708e-06
-3.18771e-06
2.04543e-06
-3.41968e-06
2.0181e-06
-3.64824e-06
1.98886e-06
-3.87318e-06
1.95774e-06
-4.09429e-06
1.9248e-06
-4.31135e-06
1.89008e-06
-4.52418e-06
1.85365e-06
-4.73256e-06
1.81555e-06
-4.93632e-06
1.77584e-06
-5.13528e-06
1.73459e-06
-5.32925e-06
1.69185e-06
-5.51807e-06
1.64771e-06
-5.70158e-06
1.60222e-06
-5.87963e-06
1.55546e-06
-6.05207e-06
1.5075e-06
-6.21876e-06
1.45843e-06
-6.37958e-06
1.40833e-06
-6.53441e-06
1.35729e-06
-6.68312e-06
1.3054e-06
-6.82561e-06
1.25277e-06
-6.9618e-06
1.19949e-06
-7.09157e-06
1.14569e-06
-7.21487e-06
1.09147e-06
-7.3316e-06
1.03698e-06
-7.44171e-06
9.82366e-07
-7.54513e-06
9.27775e-07
-7.64181e-06
8.73385e-07
-7.73169e-06
8.19388e-07
-7.81473e-06
7.66001e-07
-7.89086e-06
7.13468e-07
-7.96002e-06
6.62061e-07
-8.02214e-06
6.12092e-07
-8.0771e-06
5.63913e-07
-8.12477e-06
5.17927e-07
-8.16494e-06
4.74589e-07
-8.19732e-06
4.34414e-07
-8.2215e-06
3.97978e-07
-8.23688e-06
3.65913e-07
-8.24265e-06
3.38895e-07
-8.23767e-06
3.17611e-07
-8.2204e-06
3.02697e-07
-8.18878e-06
2.94647e-07
-8.14018e-06
2.9365e-07
-8.07134e-06
2.99356e-07
-7.97852e-06
3.10545e-07
-7.8578e-06
3.24647e-07
-7.70628e-06
3.37977e-07
3.4493e-07
-7.52254e-06
-2.27155e-07
2.18314e-06
-4.82427e-07
2.45447e-06
-7.38388e-07
2.46123e-06
-9.93636e-07
2.45447e-06
-1.24787e-06
2.44491e-06
-1.50084e-06
2.4329e-06
-1.75229e-06
2.41847e-06
-2.00196e-06
2.40163e-06
-2.24961e-06
2.38243e-06
-2.49498e-06
2.36088e-06
-2.73783e-06
2.33703e-06
-2.97793e-06
2.3109e-06
-3.21504e-06
2.28254e-06
-3.44892e-06
2.25198e-06
-3.67935e-06
2.21929e-06
-3.90612e-06
2.1845e-06
-4.129e-06
2.14768e-06
-4.34778e-06
2.10887e-06
-4.56227e-06
2.06813e-06
-4.77226e-06
2.02554e-06
-4.97757e-06
1.98114e-06
-5.178e-06
1.93502e-06
-5.37338e-06
1.88724e-06
-5.56355e-06
1.83787e-06
-5.74833e-06
1.787e-06
-5.92757e-06
1.7347e-06
-6.10113e-06
1.68105e-06
-6.26885e-06
1.62616e-06
-6.43061e-06
1.57009e-06
-6.58628e-06
1.51296e-06
-6.73574e-06
1.45486e-06
-6.87888e-06
1.39591e-06
-7.01559e-06
1.3362e-06
-7.14577e-06
1.27587e-06
-7.26934e-06
1.21504e-06
-7.3862e-06
1.15385e-06
-7.49628e-06
1.09245e-06
-7.5995e-06
1.03099e-06
-7.69578e-06
9.69665e-07
-7.78504e-06
9.08655e-07
-7.86722e-06
8.48176e-07
-7.94221e-06
7.88462e-07
-8.00993e-06
7.29775e-07
-8.07024e-06
6.72404e-07
-8.123e-06
6.1667e-07
-8.168e-06
5.6293e-07
-8.20499e-06
5.11575e-07
-8.23361e-06
4.63035e-07
-8.25339e-06
4.17766e-07
-8.26373e-06
3.76245e-07
-8.26378e-06
3.38946e-07
-8.25247e-06
3.06303e-07
-8.22842e-06
2.78649e-07
-8.1899e-06
2.5613e-07
-8.13483e-06
2.38575e-07
-8.0608e-06
2.25325e-07
-7.96524e-06
2.14984e-07
-7.84592e-06
2.05334e-07
-7.7013e-06
1.93358e-07
1.74815e-07
-7.53119e-06
-2.29344e-07
2.41248e-06
-4.87077e-07
2.71221e-06
-7.45504e-07
2.71966e-06
-1.00321e-06
2.71217e-06
-1.25988e-06
2.70159e-06
-1.51527e-06
2.68829e-06
-1.76912e-06
2.67231e-06
-2.02116e-06
2.65368e-06
-2.27115e-06
2.63242e-06
-2.51883e-06
2.60856e-06
-2.76396e-06
2.58215e-06
-3.00629e-06
2.55323e-06
-3.24558e-06
2.52183e-06
-3.48161e-06
2.48801e-06
-3.71413e-06
2.45182e-06
-3.94294e-06
2.41331e-06
-4.1678e-06
2.37254e-06
-4.38851e-06
2.32958e-06
-4.60486e-06
2.28448e-06
-4.81665e-06
2.23733e-06
-5.02368e-06
2.18818e-06
-5.22577e-06
2.13711e-06
-5.42274e-06
2.08421e-06
-5.61441e-06
2.02955e-06
-5.80062e-06
1.97321e-06
-5.98121e-06
1.91528e-06
-6.15601e-06
1.85586e-06
-6.3249e-06
1.79504e-06
-6.48773e-06
1.73292e-06
-6.64436e-06
1.6696e-06
-6.79468e-06
1.60518e-06
-6.93857e-06
1.53979e-06
-7.0759e-06
1.47354e-06
-7.20658e-06
1.40655e-06
-7.33051e-06
1.33897e-06
-7.44758e-06
1.27092e-06
-7.55771e-06
1.20257e-06
-7.6608e-06
1.13408e-06
-7.75676e-06
1.06562e-06
-7.84549e-06
9.97387e-07
-7.92689e-06
9.29579e-07
-8.00086e-06
8.62424e-07
-8.06725e-06
7.96165e-07
-8.12591e-06
7.31069e-07
-8.17666e-06
6.67422e-07
-8.21927e-06
6.05534e-07
-8.25343e-06
5.45736e-07
-8.27877e-06
4.88374e-07
-8.2948e-06
4.338e-07
-8.30091e-06
3.82359e-07
-8.29633e-06
3.34363e-07
-8.28008e-06
2.90055e-07
-8.25099e-06
2.49553e-07
-8.20764e-06
2.1278e-07
-8.14843e-06
1.79369e-07
-8.07164e-06
1.48533e-07
-7.97557e-06
1.18915e-07
-7.859e-06
8.87585e-08
-7.7212e-06
5.55622e-08
1.63237e-08
-7.56271e-06
-2.31768e-07
2.64425e-06
-4.92226e-07
2.97266e-06
-7.53381e-07
2.98082e-06
-1.0138e-06
2.97259e-06
-1.27318e-06
2.96097e-06
-1.53125e-06
2.94636e-06
-1.78775e-06
2.92881e-06
-2.04242e-06
2.90835e-06
-2.295e-06
2.885e-06
-2.54523e-06
2.8588e-06
-2.79288e-06
2.8298e-06
-3.03768e-06
2.79803e-06
-3.27939e-06
2.76355e-06
-3.51779e-06
2.72641e-06
-3.75263e-06
2.68666e-06
-3.98369e-06
2.64437e-06
-4.21075e-06
2.5996e-06
-4.43359e-06
2.55242e-06
-4.652e-06
2.50289e-06
-4.86578e-06
2.45111e-06
-5.07473e-06
2.39713e-06
-5.27866e-06
2.34104e-06
-5.47739e-06
2.28293e-06
-5.67074e-06
2.22289e-06
-5.85853e-06
2.161e-06
-6.04061e-06
2.09736e-06
-6.21682e-06
2.03207e-06
-6.38701e-06
1.96523e-06
-6.55104e-06
1.89694e-06
-6.70876e-06
1.82732e-06
-6.86006e-06
1.75648e-06
-7.0048e-06
1.68453e-06
-7.14287e-06
1.6116e-06
-7.27415e-06
1.53783e-06
-7.39853e-06
1.46335e-06
-7.51591e-06
1.3883e-06
-7.62618e-06
1.31284e-06
-7.72923e-06
1.23714e-06
-7.82497e-06
1.16136e-06
-7.91327e-06
1.08569e-06
-7.99401e-06
1.01032e-06
-8.06707e-06
9.35483e-07
-8.1323e-06
8.61387e-07
-8.1895e-06
7.88277e-07
-8.23849e-06
7.16406e-07
-8.279e-06
6.46041e-07
-8.31071e-06
5.77454e-07
-8.33326e-06
5.1092e-07
-8.34616e-06
4.46703e-07
-8.34884e-06
3.8504e-07
-8.3406e-06
3.26121e-07
-8.3206e-06
2.70049e-07
-8.28784e-06
2.16802e-07
-8.24124e-06
1.66174e-07
-8.17958e-06
1.17706e-07
-8.10164e-06
7.05936e-08
-8.00646e-06
2.37413e-08
-7.89329e-06
-2.44095e-08
-7.76179e-06
-7.59451e-08
-1.33042e-07
-7.61242e-06
-2.34431e-07
2.87868e-06
-4.97881e-07
3.23611e-06
-7.62033e-07
3.24497e-06
-1.02544e-06
3.236e-06
-1.28778e-06
3.22331e-06
-1.54879e-06
3.20737e-06
-1.80821e-06
3.18823e-06
-2.06576e-06
3.1659e-06
-2.32119e-06
3.14043e-06
-2.57423e-06
3.11184e-06
-2.82464e-06
3.0802e-06
-3.07215e-06
3.04554e-06
-3.31653e-06
3.00793e-06
-3.55753e-06
2.96741e-06
-3.79491e-06
2.92405e-06
-4.02846e-06
2.87791e-06
-4.25793e-06
2.82907e-06
-4.48311e-06
2.7776e-06
-4.70378e-06
2.72357e-06
-4.91975e-06
2.66707e-06
-5.13081e-06
2.60819e-06
-5.33676e-06
2.547e-06
-5.53742e-06
2.4836e-06
-5.73261e-06
2.41808e-06
-5.92216e-06
2.35055e-06
-6.10589e-06
2.2811e-06
-6.28365e-06
2.20983e-06
-6.45528e-06
2.13687e-06
-6.62065e-06
2.06231e-06
-6.77959e-06
1.98627e-06
-6.93199e-06
1.90887e-06
-7.07771e-06
1.83025e-06
-7.21662e-06
1.75052e-06
-7.34861e-06
1.66982e-06
-7.47356e-06
1.5883e-06
-7.59135e-06
1.50609e-06
-7.70186e-06
1.42336e-06
-7.80499e-06
1.34026e-06
-7.90061e-06
1.25698e-06
-7.9886e-06
1.17367e-06
-8.06882e-06
1.09055e-06
-8.14113e-06
1.00779e-06
-8.20537e-06
9.2562e-07
-8.26133e-06
8.44242e-07
-8.30881e-06
7.63882e-07
-8.34753e-06
6.84766e-07
-8.37719e-06
6.07118e-07
-8.39743e-06
5.3115e-07
-8.40778e-06
4.57057e-07
-8.40773e-06
3.84993e-07
-8.39667e-06
3.15057e-07
-8.37388e-06
2.47259e-07
-8.33857e-06
1.81493e-07
-8.28988e-06
1.17485e-07
-8.22693e-06
5.47591e-08
-8.14894e-06
-7.39865e-09
-8.05519e-06
-7.00102e-08
-7.94527e-06
-1.34328e-07
-7.81931e-06
-2.01903e-07
-2.74416e-07
-7.67794e-06
-2.37336e-07
3.11602e-06
-5.04051e-07
3.50283e-06
-7.71474e-07
3.51239e-06
-1.03813e-06
3.50265e-06
-1.30371e-06
3.48889e-06
-1.56794e-06
3.4716e-06
-1.83053e-06
3.45082e-06
-2.09123e-06
3.4266e-06
-2.34976e-06
3.39896e-06
-2.60587e-06
3.36795e-06
-2.85929e-06
3.33362e-06
-3.10976e-06
3.29602e-06
-3.35704e-06
3.25521e-06
-3.60088e-06
3.21125e-06
-3.84104e-06
3.16421e-06
-4.07729e-06
3.11416e-06
-4.30939e-06
3.06117e-06
-4.53712e-06
3.00533e-06
-4.76027e-06
2.94672e-06
-4.97863e-06
2.88543e-06
-5.19199e-06
2.82154e-06
-5.40015e-06
2.75516e-06
-5.60293e-06
2.68637e-06
-5.80013e-06
2.61529e-06
-5.99159e-06
2.54201e-06
-6.17714e-06
2.46664e-06
-6.3566e-06
2.3893e-06
-6.52983e-06
2.31009e-06
-6.69667e-06
2.22914e-06
-6.85697e-06
2.14657e-06
-7.0106e-06
2.0625e-06
-7.15742e-06
1.97707e-06
-7.2973e-06
1.8904e-06
-7.43012e-06
1.80264e-06
-7.55574e-06
1.71392e-06
-7.67406e-06
1.6244e-06
-7.78494e-06
1.53424e-06
-7.88826e-06
1.44358e-06
-7.98389e-06
1.35261e-06
-8.0717e-06
1.26149e-06
-8.15155e-06
1.1704e-06
-8.22328e-06
1.07952e-06
-8.28671e-06
9.89053e-07
-8.34166e-06
8.99185e-07
-8.38789e-06
8.10111e-07
-8.42514e-06
7.22023e-07
-8.45313e-06
6.35101e-07
-8.47149e-06
5.4951e-07
-8.47982e-06
4.65389e-07
-8.47766e-06
3.82833e-07
-8.46448e-06
3.01877e-07
-8.43969e-06
2.22474e-07
-8.40267e-06
1.4447e-07
-8.35276e-06
6.75734e-08
-8.28933e-06
-8.67169e-09
-8.21182e-06
-8.4911e-08
-8.11984e-06
-1.61987e-07
-8.01324e-06
-2.40929e-07
-7.89221e-06
-3.22928e-07
-4.09243e-07
-7.75739e-06
-2.40488e-07
3.35651e-06
-5.10745e-07
3.77309e-06
-7.81717e-07
3.78336e-06
-1.05191e-06
3.77285e-06
-1.321e-06
3.75798e-06
-1.58871e-06
3.73931e-06
-1.85475e-06
3.71687e-06
-2.11886e-06
3.69071e-06
-2.38077e-06
3.66086e-06
-2.64019e-06
3.62738e-06
-2.89688e-06
3.5903e-06
-3.15056e-06
3.5497e-06
-3.40099e-06
3.50563e-06
-3.64791e-06
3.45817e-06
-3.89108e-06
3.40737e-06
-4.13026e-06
3.35333e-06
-4.36521e-06
3.29613e-06
-4.59572e-06
3.23584e-06
-4.82155e-06
3.17256e-06
-5.0425e-06
3.10638e-06
-5.25836e-06
3.0374e-06
-5.46892e-06
2.96572e-06
-5.674e-06
2.89145e-06
-5.8734e-06
2.81469e-06
-6.06695e-06
2.73556e-06
-6.25447e-06
2.65416e-06
-6.43579e-06
2.57062e-06
-6.61076e-06
2.48506e-06
-6.77922e-06
2.3976e-06
-6.94102e-06
2.30837e-06
-7.09602e-06
2.2175e-06
-7.24407e-06
2.12512e-06
-7.38505e-06
2.03138e-06
-7.51881e-06
1.9364e-06
-7.64524e-06
1.84035e-06
-7.7642e-06
1.74337e-06
-7.87557e-06
1.6456e-06
-7.97921e-06
1.54722e-06
-8.07499e-06
1.44839e-06
-8.16277e-06
1.34927e-06
-8.2424e-06
1.25003e-06
-8.31372e-06
1.15084e-06
-8.37655e-06
1.05189e-06
-8.4307e-06
9.53334e-07
-8.47595e-06
8.55356e-07
-8.51204e-06
7.58113e-07
-8.53869e-06
6.61754e-07
-8.55559e-06
5.66407e-07
-8.56236e-06
4.72166e-07
-8.55862e-06
3.79087e-07
-8.5439e-06
2.87163e-07
-8.51775e-06
1.96317e-07
-8.47965e-06
1.06375e-07
-8.42913e-06
1.70511e-08
-8.36573e-06
-7.20675e-08
-8.2891e-06
-1.61541e-07
-8.19903e-06
-2.52065e-07
-8.09549e-06
-3.44463e-07
-7.97877e-06
-4.39652e-07
-5.38576e-07
-7.84944e-06
-2.43893e-07
3.6004e-06
-5.17976e-07
4.04717e-06
-7.92779e-07
4.05817e-06
-1.06678e-06
4.04685e-06
-1.33967e-06
4.03086e-06
-1.61114e-06
4.01078e-06
-1.88091e-06
3.98664e-06
-2.14871e-06
3.95851e-06
-2.41425e-06
3.9264e-06
-2.67726e-06
3.89039e-06
-2.93747e-06
3.85052e-06
-3.19462e-06
3.80685e-06
-3.44845e-06
3.75946e-06
-3.69869e-06
3.70841e-06
-3.94511e-06
3.65379e-06
-4.18746e-06
3.59568e-06
-4.42549e-06
3.53416e-06
-4.65899e-06
3.46933e-06
-4.88772e-06
3.40129e-06
-5.11147e-06
3.33013e-06
-5.33002e-06
3.25595e-06
-5.54318e-06
3.17888e-06
-5.75074e-06
3.09901e-06
-5.95252e-06
3.01647e-06
-6.14833e-06
2.93137e-06
-6.33799e-06
2.84383e-06
-6.52134e-06
2.75397e-06
-6.6982e-06
2.66193e-06
-6.86843e-06
2.56783e-06
-7.03187e-06
2.47181e-06
-7.18838e-06
2.374e-06
-7.3378e-06
2.27454e-06
-7.48e-06
2.17358e-06
-7.61485e-06
2.07125e-06
-7.74221e-06
1.96771e-06
-7.86194e-06
1.8631e-06
-7.97393e-06
1.75759e-06
-8.07802e-06
1.65132e-06
-8.17409e-06
1.54446e-06
-8.26199e-06
1.43716e-06
-8.34156e-06
1.3296e-06
-8.41265e-06
1.22193e-06
-8.47508e-06
1.11432e-06
-8.52866e-06
1.00691e-06
-8.57317e-06
8.99866e-07
-8.60838e-06
7.93322e-07
-8.63402e-06
6.87401e-07
-8.64982e-06
5.82201e-07
-8.65544e-06
4.77791e-07
-8.65055e-06
3.74196e-07
-8.63478e-06
2.71389e-07
-8.60774e-06
1.69276e-07
-8.56905e-06
6.76866e-08
-8.51835e-06
-3.3645e-08
-8.45534e-06
-1.35082e-07
-8.37978e-06
-2.37094e-07
-8.2916e-06
-3.4025e-07
-8.19086e-06
-4.45202e-07
-8.07786e-06
-5.52653e-07
-6.63315e-07
-7.95312e-06
-2.47555e-07
3.84795e-06
-5.25753e-07
4.32537e-06
-8.04678e-07
4.33709e-06
-1.08279e-06
4.32496e-06
-1.35975e-06
4.30782e-06
-1.63526e-06
4.28629e-06
-1.90904e-06
4.26043e-06
-2.1808e-06
4.23026e-06
-2.45025e-06
4.19586e-06
-2.71712e-06
4.15726e-06
-2.98113e-06
4.11452e-06
-3.242e-06
4.06773e-06
-3.49948e-06
4.01694e-06
-3.7533e-06
3.96223e-06
-4.00321e-06
3.9037e-06
-4.24896e-06
3.84143e-06
-4.49031e-06
3.77551e-06
-4.72702e-06
3.70604e-06
-4.95886e-06
3.63313e-06
-5.18562e-06
3.55688e-06
-5.40708e-06
3.47741e-06
-5.62303e-06
3.39483e-06
-5.83327e-06
3.30925e-06
-6.0376e-06
3.2208e-06
-6.23585e-06
3.12961e-06
-6.42783e-06
3.0358e-06
-6.61336e-06
2.93951e-06
-6.79228e-06
2.84085e-06
-6.96444e-06
2.73999e-06
-7.12966e-06
2.63704e-06
-7.28782e-06
2.53215e-06
-7.43874e-06
2.42547e-06
-7.58231e-06
2.31714e-06
-7.71837e-06
2.20731e-06
-7.84679e-06
2.09613e-06
-7.96744e-06
1.98375e-06
-8.08018e-06
1.87032e-06
-8.18486e-06
1.75601e-06
-8.28136e-06
1.64096e-06
-8.36953e-06
1.52533e-06
-8.44921e-06
1.40928e-06
-8.52025e-06
1.29297e-06
-8.58247e-06
1.17653e-06
-8.63568e-06
1.06013e-06
-8.6797e-06
9.43877e-07
-8.71428e-06
8.27911e-07
-8.73921e-06
7.12329e-07
-8.75422e-06
5.97212e-07
-8.75904e-06
4.82608e-07
-8.75337e-06
3.68527e-07
-8.73692e-06
2.54932e-07
-8.70937e-06
1.41729e-07
-8.67044e-06
2.87578e-08
-8.61987e-06
-8.42163e-08
-8.55745e-06
-1.97503e-07
-8.48305e-06
-3.11489e-07
-8.39667e-06
-4.26631e-07
-8.29843e-06
-5.43441e-07
-8.18863e-06
-6.62458e-07
-7.84213e-07
-8.06773e-06
-2.5148e-07
4.09943e-06
-5.3409e-07
4.60798e-06
-8.17433e-07
4.62043e-06
-1.09994e-06
4.60747e-06
-1.38127e-06
4.58915e-06
-1.66112e-06
4.56614e-06
-1.9392e-06
4.5385e-06
-2.2152e-06
4.50627e-06
-2.48885e-06
4.4695e-06
-2.75985e-06
4.42825e-06
-3.02792e-06
4.38259e-06
-3.29278e-06
4.33259e-06
-3.55417e-06
4.27833e-06
-3.81182e-06
4.21988e-06
-4.06547e-06
4.15735e-06
-4.31487e-06
4.09082e-06
-4.55976e-06
4.0204e-06
-4.79991e-06
3.9462e-06
-5.0351e-06
3.86831e-06
-5.26508e-06
3.78687e-06
-5.48965e-06
3.70198e-06
-5.70859e-06
3.61377e-06
-5.9217e-06
3.52236e-06
-6.12878e-06
3.42789e-06
-6.32964e-06
3.33048e-06
-6.52411e-06
3.23027e-06
-6.71199e-06
3.12739e-06
-6.89313e-06
3.022e-06
-7.06737e-06
2.91422e-06
-7.23453e-06
2.8042e-06
-7.39448e-06
2.6921e-06
-7.54705e-06
2.57805e-06
-7.69212e-06
2.46221e-06
-7.82953e-06
2.34473e-06
-7.95915e-06
2.22575e-06
-8.08085e-06
2.10544e-06
-8.19447e-06
1.98395e-06
-8.29989e-06
1.86143e-06
-8.39697e-06
1.73804e-06
-8.48556e-06
1.61392e-06
-8.56551e-06
1.48923e-06
-8.63667e-06
1.36412e-06
-8.69886e-06
1.23873e-06
-8.75192e-06
1.11318e-06
-8.79565e-06
9.8761e-07
-8.82986e-06
8.62118e-07
-8.85432e-06
7.36797e-07
-8.86883e-06
6.11715e-07
-8.87313e-06
4.86909e-07
-8.86698e-06
3.62381e-07
-8.85014e-06
2.38095e-07
-8.82238e-06
1.13961e-07
-8.78347e-06
-1.0152e-08
-8.73322e-06
-1.34464e-07
-8.67151e-06
-2.59212e-07
-8.59828e-06
-3.84717e-07
-8.51357e-06
-5.1134e-07
-8.41754e-06
-6.39476e-07
-8.31046e-06
-7.69535e-07
-9.0191e-07
-8.19276e-06
-2.55676e-07
4.35511e-06
-5.43e-07
4.8953e-06
-8.31064e-07
4.9085e-06
-1.11827e-06
4.89467e-06
-1.40427e-06
4.87515e-06
-1.68876e-06
4.85063e-06
-1.97142e-06
4.82116e-06
-2.25196e-06
4.78681e-06
-2.53008e-06
4.74763e-06
-2.8055e-06
4.70367e-06
-3.07791e-06
4.65501e-06
-3.34704e-06
4.60172e-06
-3.6126e-06
4.54389e-06
-3.87434e-06
4.48162e-06
-4.13198e-06
4.41499e-06
-4.38527e-06
4.34411e-06
-4.63395e-06
4.26908e-06
-4.87778e-06
4.19003e-06
-5.11653e-06
4.10706e-06
-5.34995e-06
4.0203e-06
-5.57784e-06
3.92987e-06
-5.79998e-06
3.8359e-06
-6.01615e-06
3.73854e-06
-6.22617e-06
3.6379e-06
-6.42983e-06
3.53414e-06
-6.62696e-06
3.42739e-06
-6.81737e-06
3.3178e-06
-7.00089e-06
3.20552e-06
-7.17736e-06
3.09069e-06
-7.34662e-06
2.97346e-06
-7.50851e-06
2.85399e-06
-7.66288e-06
2.73242e-06
-7.80958e-06
2.60892e-06
-7.94849e-06
2.48363e-06
-8.07944e-06
2.35671e-06
-8.20232e-06
2.22832e-06
-8.31697e-06
2.0986e-06
-8.42327e-06
1.96773e-06
-8.52107e-06
1.83584e-06
-8.61023e-06
1.70308e-06
-8.6906e-06
1.56961e-06
-8.76204e-06
1.43556e-06
-8.82439e-06
1.30107e-06
-8.87748e-06
1.16627e-06
-8.92113e-06
1.03126e-06
-8.95517e-06
8.96157e-07
-8.9794e-06
7.61031e-07
-8.99363e-06
6.25946e-07
-8.99766e-06
4.90936e-07
-8.99128e-06
3.56002e-07
-8.9743e-06
2.21112e-07
-8.94653e-06
8.61925e-08
-8.90781e-06
-4.88722e-08
-8.85802e-06
-1.84258e-07
-8.79707e-06
-3.20157e-07
-8.72497e-06
-4.56822e-07
-8.64177e-06
-5.94533e-07
-8.54766e-06
-7.33592e-07
-8.44289e-06
-8.74304e-07
-1.01696e-06
-8.32784e-06
-2.60148e-07
4.61526e-06
-5.52497e-07
5.18765e-06
-8.45594e-07
5.2016e-06
-1.13781e-06
5.18689e-06
-1.42879e-06
5.16613e-06
-1.71821e-06
5.14005e-06
-2.00576e-06
5.10872e-06
-2.29114e-06
5.07219e-06
-2.57403e-06
5.03052e-06
-2.85415e-06
4.98378e-06
-3.13118e-06
4.93204e-06
-3.40485e-06
4.87539e-06
-3.67487e-06
4.81391e-06
-3.94096e-06
4.74771e-06
-4.20285e-06
4.67688e-06
-4.46028e-06
4.60154e-06
-4.71299e-06
4.5218e-06
-4.96073e-06
4.43777e-06
-5.20327e-06
4.34959e-06
-5.44036e-06
4.25739e-06
-5.67179e-06
4.16129e-06
-5.89733e-06
4.06144e-06
-6.11677e-06
3.95798e-06
-6.32991e-06
3.85105e-06
-6.53656e-06
3.74079e-06
-6.73653e-06
3.62736e-06
-6.92963e-06
3.51091e-06
-7.1157e-06
3.39159e-06
-7.29457e-06
3.26955e-06
-7.46607e-06
3.14496e-06
-7.63005e-06
3.01797e-06
-7.78636e-06
2.88873e-06
-7.93485e-06
2.75741e-06
-8.07538e-06
2.62416e-06
-8.20781e-06
2.48914e-06
-8.33201e-06
2.35251e-06
-8.44783e-06
2.21443e-06
-8.55514e-06
2.07504e-06
-8.6538e-06
1.9345e-06
-8.74368e-06
1.79296e-06
-8.82464e-06
1.65056e-06