/*--------------------------------*- C++ -*----------------------------------*\
  =========                 |
  \\      /  F ield         | OpenFOAM: The Open Source CFD Toolbox
   \\    /   O peration     | Website:  https://openfoam.org
    \\  /    A nd           | Version:  8
     \\/     M anipulation  |
\*---------------------------------------------------------------------------*/
FoamFile
{
    version     2.0;
    format      ascii;
    class       volVectorField;
    location    "2.5";
    object      U;
}
// * * * * * * * * * * * * * * * * * * * * * * * * * * * * * * * * * * * * * //

dimensions      [0 1 -1 0 0 0 0];

internalField   nonuniform List<vector> 
11600
(
(-9.21685e-06 9.21129e-06 0)
(-2.9617e-05 1.04294e-05 0)
(-5.16396e-05 1.04578e-05 0)
(-7.32947e-05 1.04285e-05 0)
(-9.48869e-05 1.03879e-05 0)
(-0.000116387 1.03373e-05 0)
(-0.000137771 1.02766e-05 0)
(-0.000159019 1.02058e-05 0)
(-0.00018011 1.0125e-05 0)
(-0.000201022 1.00344e-05 0)
(-0.000221737 9.93403e-06 0)
(-0.000242233 9.82412e-06 0)
(-0.000262491 9.70481e-06 0)
(-0.000282492 9.57628e-06 0)
(-0.000302217 9.43873e-06 0)
(-0.000321647 9.29238e-06 0)
(-0.000340765 9.13745e-06 0)
(-0.000359552 8.97419e-06 0)
(-0.000377992 8.80285e-06 0)
(-0.000396068 8.6237e-06 0)
(-0.000413765 8.43704e-06 0)
(-0.000431066 8.24315e-06 0)
(-0.000447958 8.04236e-06 0)
(-0.000464427 7.835e-06 0)
(-0.000480458 7.62144e-06 0)
(-0.00049604 7.40204e-06 0)
(-0.000511162 7.1772e-06 0)
(-0.000525811 6.94736e-06 0)
(-0.000539978 6.71295e-06 0)
(-0.000553655 6.47447e-06 0)
(-0.000566833 6.23245e-06 0)
(-0.000579505 5.98746e-06 0)
(-0.000591666 5.74012e-06 0)
(-0.000603312 5.49114e-06 0)
(-0.00061444 5.24128e-06 0)
(-0.000625049 4.99144e-06 0)
(-0.00063514 4.7426e-06 0)
(-0.000644717 4.49593e-06 0)
(-0.000653784 4.25277e-06 0)
(-0.000662351 4.01473e-06 0)
(-0.000670431 3.78373e-06 0)
(-0.000678039 3.56211e-06 0)
(-0.000685198 3.35277e-06 0)
(-0.000691936 3.15936e-06 0)
(-0.000698292 2.98656e-06 0)
(-0.000704312 2.84045e-06 0)
(-0.000710059 2.72918e-06 0)
(-0.000715615 2.66384e-06 0)
(-0.000721089 2.66001e-06 0)
(-0.000726624 2.74009e-06 0)
(-0.000732419 2.93738e-06 0)
(-0.000738753 3.3035e-06 0)
(-0.000746029 3.9218e-06 0)
(-0.000754847 4.93301e-06 0)
(-0.000766151 6.58634e-06 0)
(-0.000781432 9.35153e-06 0)
(-0.00080207 1.4132e-05 0)
(-0.000843481 2.18801e-05 0)
(-0.000856324 4.39161e-05 0)
(-0.00105018 9.18796e-05 0)
(-1.04536e-05 2.96231e-05 0)
(-3.34775e-05 3.34266e-05 0)
(-5.82477e-05 3.35213e-05 0)
(-8.26223e-05 3.34293e-05 0)
(-0.000106928 3.32999e-05 0)
(-0.000131129 3.31377e-05 0)
(-0.000155201 3.29429e-05 0)
(-0.000179119 3.27158e-05 0)
(-0.00020286 3.24567e-05 0)
(-0.0002264 3.21659e-05 0)
(-0.000249717 3.1844e-05 0)
(-0.000272787 3.14914e-05 0)
(-0.00029559 3.11086e-05 0)
(-0.000318102 3.06963e-05 0)
(-0.000340304 3.02551e-05 0)
(-0.000362173 2.97857e-05 0)
(-0.00038369 2.92887e-05 0)
(-0.000404835 2.8765e-05 0)
(-0.000425589 2.82155e-05 0)
(-0.000445932 2.76408e-05 0)
(-0.000465848 2.70421e-05 0)
(-0.000485319 2.64202e-05 0)
(-0.000504329 2.57762e-05 0)
(-0.000522861 2.51111e-05 0)
(-0.000540901 2.44261e-05 0)
(-0.000558434 2.37224e-05 0)
(-0.000575448 2.30013e-05 0)
(-0.00059193 2.2264e-05 0)
(-0.00060787 2.15122e-05 0)
(-0.000623256 2.07472e-05 0)
(-0.00063808 1.99708e-05 0)
(-0.000652334 1.91849e-05 0)
(-0.000666011 1.83914e-05 0)
(-0.000679108 1.75925e-05 0)
(-0.000691621 1.67907e-05 0)
(-0.000703548 1.59888e-05 0)
(-0.00071489 1.519e-05 0)
(-0.000725651 1.43979e-05 0)
(-0.000735836 1.36168e-05 0)
(-0.000745456 1.28517e-05 0)
(-0.000754522 1.21087e-05 0)
(-0.000763053 1.13951e-05 0)
(-0.000771073 1.07201e-05 0)
(-0.000778612 1.0095e-05 0)
(-0.00078571 9.53446e-06 0)
(-0.000792417 9.05727e-06 0)
(-0.000798798 8.68857e-06 0)
(-0.000804938 8.46236e-06 0)
(-0.000810947 8.42587e-06 0)
(-0.000816971 8.64628e-06 0)
(-0.000823204 9.22163e-06 0)
(-0.00082991 1.03005e-05 0)
(-0.000837453 1.21159e-05 0)
(-0.000846346 1.50473e-05 0)
(-0.000857323 1.97395e-05 0)
(-0.000871417 2.73443e-05 0)
(-0.000889854 3.99625e-05 0)
(-0.000920193 6.04103e-05 0)
(-0.000931244 0.000107035 0)
(-0.00104596 0.000145276 0)
(-1.05213e-05 5.17261e-05 0)
(-3.36983e-05 5.82437e-05 0)
(-5.86332e-05 5.84099e-05 0)
(-8.31666e-05 5.82512e-05 0)
(-0.00010763 5.80261e-05 0)
(-0.000131989 5.77435e-05 0)
(-0.000156217 5.74039e-05 0)
(-0.00018029 5.70078e-05 0)
(-0.000204184 5.6556e-05 0)
(-0.000227877 5.6049e-05 0)
(-0.000251344 5.54876e-05 0)
(-0.000274563 5.48727e-05 0)
(-0.000297512 5.42053e-05 0)
(-0.000320169 5.34864e-05 0)
(-0.000342513 5.2717e-05 0)
(-0.000364522 5.18985e-05 0)
(-0.000386176 5.1032e-05 0)
(-0.000407454 5.01189e-05 0)
(-0.000428339 4.91606e-05 0)
(-0.000448811 4.81587e-05 0)
(-0.000468851 4.71147e-05 0)
(-0.000488443 4.60303e-05 0)
(-0.00050757 4.49074e-05 0)
(-0.000526216 4.37477e-05 0)
(-0.000544366 4.25533e-05 0)
(-0.000562005 4.13261e-05 0)
(-0.00057912 4.00686e-05 0)
(-0.0005957 3.87829e-05 0)
(-0.000611732 3.74715e-05 0)
(-0.000627205 3.61373e-05 0)
(-0.000642112 3.4783e-05 0)
(-0.000656444 3.34118e-05 0)
(-0.000670193 3.20272e-05 0)
(-0.000683356 3.06329e-05 0)
(-0.000695928 2.92332e-05 0)
(-0.000707908 2.78329e-05 0)
(-0.000719296 2.64373e-05 0)
(-0.000730094 2.50526e-05 0)
(-0.000740308 2.36861e-05 0)
(-0.000749946 2.23464e-05 0)
(-0.000759019 2.10435e-05 0)
(-0.000767543 1.97899e-05 0)
(-0.00077554 1.86007e-05 0)
(-0.000783036 1.74948e-05 0)
(-0.000790066 1.64962e-05 0)
(-0.000796673 1.56358e-05 0)
(-0.000802914 1.49539e-05 0)
(-0.000808858 1.45047e-05 0)
(-0.000814594 1.43619e-05 0)
(-0.000820237 1.46283e-05 0)
(-0.000825928 1.54497e-05 0)
(-0.000831848 1.70386e-05 0)
(-0.000838223 1.97128e-05 0)
(-0.000845322 2.39591e-05 0)
(-0.000853441 3.0543e-05 0)
(-0.000862819 4.06996e-05 0)
(-0.000873479 5.64304e-05 0)
(-0.000885959 8.07821e-05 0)
(-0.000887171 0.000124579 0)
(-0.000910092 0.000164966 0)
(-1.05519e-05 7.3565e-05 0)
(-3.37986e-05 8.27821e-05 0)
(-5.88095e-05 8.30157e-05 0)
(-8.34165e-05 8.27899e-05 0)
(-0.000107953 8.24699e-05 0)
(-0.000132385 8.2068e-05 0)
(-0.000156685 8.1585e-05 0)
(-0.00018083 8.10218e-05 0)
(-0.000204795 8.03792e-05 0)
(-0.000228557 7.96581e-05 0)
(-0.000252092 7.88598e-05 0)
(-0.000275379 7.79853e-05 0)
(-0.000298395 7.70362e-05 0)
(-0.000321117 7.60137e-05 0)
(-0.000343524 7.49196e-05 0)
(-0.000365595 7.37555e-05 0)
(-0.000387309 7.25232e-05 0)
(-0.000408646 7.12246e-05 0)
(-0.000429588 6.98618e-05 0)
(-0.000450114 6.84368e-05 0)
(-0.000470207 6.69521e-05 0)
(-0.00048985 6.54099e-05 0)
(-0.000509025 6.38127e-05 0)
(-0.000527717 6.21633e-05 0)
(-0.00054591 6.04643e-05 0)
(-0.00056359 5.87188e-05 0)
(-0.000580744 5.69298e-05 0)
(-0.000597358 5.51006e-05 0)
(-0.000613422 5.32349e-05 0)
(-0.000628924 5.13363e-05 0)
(-0.000643855 4.94088e-05 0)
(-0.000658207 4.7457e-05 0)
(-0.000671973 4.54856e-05 0)
(-0.000685147 4.34998e-05 0)
(-0.000697725 4.15056e-05 0)
(-0.000709705 3.95095e-05 0)
(-0.000721085 3.7519e-05 0)
(-0.000731868 3.55426e-05 0)
(-0.000742057 3.35901e-05 0)
(-0.000751658 3.16732e-05 0)
(-0.000760681 2.98056e-05 0)
(-0.00076914 2.8004e-05 0)
(-0.00077705 2.62883e-05 0)
(-0.000784434 2.46837e-05 0)
(-0.00079132 2.32215e-05 0)
(-0.000797742 2.19413e-05 0)
(-0.000803742 2.08946e-05 0)
(-0.000809373 2.01487e-05 0)
(-0.000814696 1.97934e-05 0)
(-0.000819786 1.99503e-05 0)
(-0.000824728 2.07865e-05 0)
(-0.000829615 2.25347e-05 0)
(-0.000834541 2.55247e-05 0)
(-0.000839573 3.02272e-05 0)
(-0.000844703 3.73179e-05 0)
(-0.000849736 4.77608e-05 0)
(-0.000854101 6.2884e-05 0)
(-0.000856584 8.44528e-05 0)
(-0.000851883 0.000115718 0)
(-0.000848216 0.000148278 0)
(-1.05921e-05 9.54819e-05 0)
(-3.39283e-05 0.000107411 0)
(-5.90359e-05 0.000107712 0)
(-8.37375e-05 0.000107418 0)
(-0.000108368 0.000107003 0)
(-0.000132894 0.000106481 0)
(-0.000157287 0.000105854 0)
(-0.000181523 0.000105122 0)
(-0.000205579 0.000104288 0)
(-0.00022943 0.000103352 0)
(-0.000253054 0.000102315 0)
(-0.000276428 0.00010118 0)
(-0.000299528 9.99473e-05 0)
(-0.000322334 9.86197e-05 0)
(-0.000344822 9.7199e-05 0)
(-0.000366973 9.56874e-05 0)
(-0.000388764 9.40873e-05 0)
(-0.000410177 9.24011e-05 0)
(-0.000431191 9.06315e-05 0)
(-0.000451787 8.87812e-05 0)
(-0.000471948 8.68531e-05 0)
(-0.000491655 8.48504e-05 0)
(-0.000510892 8.27763e-05 0)
(-0.000529643 8.06342e-05 0)
(-0.000547891 7.84276e-05 0)
(-0.000565623 7.61604e-05 0)
(-0.000582825 7.38366e-05 0)
(-0.000599483 7.14604e-05 0)
(-0.000615587 6.90363e-05 0)
(-0.000631125 6.65692e-05 0)
(-0.000646087 6.40641e-05 0)
(-0.000660464 6.15267e-05 0)
(-0.00067425 5.89632e-05 0)
(-0.000687438 5.638e-05 0)
(-0.000700022 5.37847e-05 0)
(-0.000712 5.11854e-05 0)
(-0.00072337 4.85914e-05 0)
(-0.000734132 4.60134e-05 0)
(-0.000744288 4.34635e-05 0)
(-0.000753842 4.09558e-05 0)
(-0.000762801 3.8507e-05 0)
(-0.000771175 3.61372e-05 0)
(-0.000778975 3.38703e-05 0)
(-0.000786219 3.17358e-05 0)
(-0.000792925 2.97699e-05 0)
(-0.000799118 2.80183e-05 0)
(-0.000804825 2.65386e-05 0)
(-0.000810079 2.54051e-05 0)
(-0.000814914 2.47138e-05 0)
(-0.000819365 2.45912e-05 0)
(-0.000823466 2.52044e-05 0)
(-0.000827234 2.67766e-05 0)
(-0.000830656 2.96061e-05 0)
(-0.000833655 3.40911e-05 0)
(-0.000836036 4.07555e-05 0)
(-0.000837385 5.02674e-05 0)
(-0.000836922 6.3424e-05 0)
(-0.00083327 8.10676e-05 0)
(-0.000823495 0.000103918 0)
(-0.00080779 0.000129233 0)
(-1.06431e-05 0.000117496 0)
(-3.40919e-05 0.000132149 0)
(-5.9321e-05 0.000132517 0)
(-8.41418e-05 0.000132156 0)
(-0.000108891 0.000131644 0)
(-0.000133535 0.000131002 0)
(-0.000158044 0.000130229 0)
(-0.000182396 0.000129329 0)
(-0.000206566 0.000128301 0)
(-0.00023053 0.000127148 0)
(-0.000254265 0.000125872 0)
(-0.000277748 0.000124474 0)
(-0.000300956 0.000122956 0)
(-0.000323866 0.000121321 0)
(-0.000346457 0.000119572 0)
(-0.000368708 0.00011771 0)
(-0.000390597 0.00011574 0)
(-0.000412104 0.000113663 0)
(-0.000433209 0.000111484 0)
(-0.000453894 0.000109205 0)
(-0.00047414 0.000106831 0)
(-0.000493929 0.000104364 0)
(-0.000513243 0.00010181 0)
(-0.000532068 9.91715e-05 0)
(-0.000550386 9.64535e-05 0)
(-0.000568184 9.36606e-05 0)
(-0.000585446 9.07977e-05 0)
(-0.000602161 8.78698e-05 0)
(-0.000618315 8.48825e-05 0)
(-0.000633899 8.18416e-05 0)
(-0.0006489 7.87532e-05 0)
(-0.000663311 7.56241e-05 0)
(-0.000677122 7.24616e-05 0)
(-0.000690328 6.92736e-05 0)
(-0.000702922 6.60688e-05 0)
(-0.000714901 6.2857e-05 0)
(-0.00072626 5.9649e-05 0)
(-0.000736999 5.6457e-05 0)
(-0.000747117 5.32952e-05 0)
(-0.000756617 5.01798e-05 0)
(-0.000765503 4.71298e-05 0)
(-0.000773779 4.41674e-05 0)
(-0.000781454 4.13194e-05 0)
(-0.000788538 3.86179e-05 0)
(-0.000795041 3.61021e-05 0)
(-0.000800976 3.38201e-05 0)
(-0.000806359 3.18317e-05 0)
(-0.000811201 3.0212e-05 0)
(-0.000815513 2.90553e-05 0)
(-0.000819298 2.84816e-05 0)
(-0.000822545 2.86433e-05 0)
(-0.000825217 2.97338e-05 0)
(-0.00082723 3.19967e-05 0)
(-0.000828427 3.57329e-05 0)
(-0.00082853 4.1301e-05 0)
(-0.00082707 4.90994e-05 0)
(-0.000823304 5.95096e-05 0)
(-0.000816094 7.27713e-05 0)
(-0.000803719 8.87255e-05 0)
(-0.000785142 0.000105735 0)
(-1.07048e-05 0.000139627 0)
(-3.42899e-05 0.000157019 0)
(-5.96655e-05 0.000157455 0)
(-8.46303e-05 0.000157025 0)
(-0.000109523 0.000156416 0)
(-0.000134309 0.000155652 0)
(-0.00015896 0.000154733 0)
(-0.000183451 0.000153662 0)
(-0.000207759 0.00015244 0)
(-0.00023186 0.000151069 0)
(-0.000255729 0.00014955 0)
(-0.000279344 0.000147887 0)
(-0.000302681 0.000146082 0)
(-0.000325718 0.000144137 0)
(-0.000348433 0.000142056 0)
(-0.000370804 0.000139842 0)
(-0.000392811 0.000137498 0)
(-0.000414432 0.000135028 0)
(-0.000435649 0.000132436 0)
(-0.00045644 0.000129725 0)
(-0.000476789 0.000126901 0)
(-0.000496676 0.000123967 0)
(-0.000516085 0.000120927 0)
(-0.000534999 0.000117788 0)
(-0.000553402 0.000114554 0)
(-0.000571279 0.000111231 0)
(-0.000588615 0.000107824 0)
(-0.000605398 0.000104339 0)
(-0.000621615 0.000100782 0)
(-0.000637254 9.71613e-05 0)
(-0.000652304 9.34829e-05 0)
(-0.000666756 8.97549e-05 0)
(-0.000680601 8.59855e-05 0)
(-0.00069383 8.21839e-05 0)
(-0.000706439 7.83599e-05 0)
(-0.00071842 7.45246e-05 0)
(-0.00072977 7.06901e-05 0)
(-0.000740485 6.68702e-05 0)
(-0.000750565 6.30802e-05 0)
(-0.000760007 5.9338e-05 0)
(-0.000768813 5.56641e-05 0)
(-0.000776985 5.20823e-05 0)
(-0.000784525 4.86207e-05 0)
(-0.000791436 4.53127e-05 0)
(-0.000797723 4.21982e-05 0)
(-0.000803388 3.93252e-05 0)
(-0.000808433 3.67522e-05 0)
(-0.000812855 3.45504e-05 0)
(-0.000816644 3.28068e-05 0)
(-0.000819778 3.16277e-05 0)
(-0.000822214 3.11426e-05 0)
(-0.000823881 3.15071e-05 0)
(-0.000824657 3.29045e-05 0)
(-0.000824351 3.55425e-05 0)
(-0.000822669 3.96406e-05 0)
(-0.000819176 4.53996e-05 0)
(-0.000813251 5.29407e-05 0)
(-0.000804054 6.21982e-05 0)
(-0.00079053 7.27432e-05 0)
(-0.000771838 8.34059e-05 0)
(-1.07774e-05 0.000161897 0)
(-3.45223e-05 0.000182045 0)
(-6.007e-05 0.000182549 0)
(-8.52038e-05 0.00018205 0)
(-0.000110265 0.000181344 0)
(-0.000135218 0.000180456 0)
(-0.000160034 0.00017939 0)
(-0.00018469 0.000178146 0)
(-0.00020916 0.000176728 0)
(-0.00023342 0.000175136 0)
(-0.000257447 0.000173373 0)
(-0.000281217 0.000171442 0)
(-0.000304706 0.000169347 0)
(-0.000327892 0.00016709 0)
(-0.000350752 0.000164674 0)
(-0.000373266 0.000162104 0)
(-0.000395411 0.000159383 0)
(-0.000417166 0.000156516 0)
(-0.000438512 0.000153506 0)
(-0.000459429 0.000150359 0)
(-0.000479899 0.00014708 0)
(-0.000499902 0.000143673 0)
(-0.000519422 0.000140145 0)
(-0.000538441 0.0001365 0)
(-0.000556944 0.000132744 0)
(-0.000574914 0.000128885 0)
(-0.000592338 0.000124927 0)
(-0.000609202 0.000120879 0)
(-0.000625493 0.000116747 0)
(-0.000641198 0.000112538 0)
(-0.000656307 0.000108262 0)
(-0.000670808 0.000103927 0)
(-0.000684693 9.95415e-05 0)
(-0.000697954 9.51163e-05 0)
(-0.000710582 9.06622e-05 0)
(-0.00072257 8.61912e-05 0)
(-0.000733914 8.17165e-05 0)
(-0.000744608 7.7253e-05 0)
(-0.000754649 7.28171e-05 0)
(-0.000764033 6.84275e-05 0)
(-0.000772759 6.41057e-05 0)
(-0.000780823 5.98762e-05 0)
(-0.000788224 5.57675e-05 0)
(-0.00079496 5.18127e-05 0)
(-0.000801028 4.80509e-05 0)
(-0.000806422 4.4528e-05 0)
(-0.000811133 4.12985e-05 0)
(-0.000815146 3.84269e-05 0)
(-0.000818436 3.59891e-05 0)
(-0.000820963 3.40747e-05 0)
(-0.000822666 3.27873e-05 0)
(-0.000823455 3.22441e-05 0)
(-0.000823195 3.2573e-05 0)
(-0.000821691 3.39039e-05 0)
(-0.000818672 3.63518e-05 0)
(-0.00081377 3.9986e-05 0)
(-0.000806506 4.47792e-05 0)
(-0.000796292 5.05326e-05 0)
(-0.000782512 5.67704e-05 0)
(-0.000764685 6.25874e-05 0)
(-1.08608e-05 0.000184329 0)
(-3.47896e-05 0.000207253 0)
(-6.05351e-05 0.000207826 0)
(-8.58632e-05 0.000207257 0)
(-0.000111118 0.000206451 0)
(-0.000136262 0.000205439 0)
(-0.000161269 0.000204224 0)
(-0.000186114 0.000202806 0)
(-0.00021077 0.000201188 0)
(-0.000235214 0.000199373 0)
(-0.000259422 0.000197364 0)
(-0.00028337 0.000195163 0)
(-0.000307034 0.000192774 0)
(-0.000330391 0.0001902 0)
(-0.000353419 0.000187446 0)
(-0.000376095 0.000184516 0)
(-0.000398399 0.000181414 0)
(-0.000420309 0.000178145 0)
(-0.000441805 0.000174714 0)
(-0.000462866 0.000171126 0)
(-0.000483475 0.000167387 0)
(-0.000503612 0.000163502 0)
(-0.000523259 0.000159479 0)
(-0.000542399 0.000155322 0)
(-0.000561017 0.000151039 0)
(-0.000579096 0.000146636 0)
(-0.000596621 0.000142122 0)
(-0.000613579 0.000137502 0)
(-0.000629956 0.000132787 0)
(-0.000645738 0.000127983 0)
(-0.000660916 0.000123101 0)
(-0.000675477 0.000118149 0)
(-0.000689411 0.000113137 0)
(-0.00070271 0.000108078 0)
(-0.000715364 0.000102981 0)
(-0.000727366 9.78613e-05 0)
(-0.000738708 9.27316e-05 0)
(-0.000749385 8.76079e-05 0)
(-0.00075939 8.25072e-05 0)
(-0.000768719 7.74489e-05 0)
(-0.000777365 7.24545e-05 0)
(-0.000785323 6.75487e-05 0)
(-0.000792588 6.27594e-05 0)
(-0.000799153 5.81186e-05 0)
(-0.000805008 5.36633e-05 0)
(-0.000810141 4.94358e-05 0)
(-0.000814535 4.54851e-05 0)
(-0.000818165 4.18671e-05 0)
(-0.000820996 3.86458e-05 0)
(-0.000822979 3.58929e-05 0)
(-0.000824045 3.36869e-05 0)
(-0.000824095 3.2111e-05 0)
(-0.000822997 3.12471e-05 0)
(-0.000820572 3.11658e-05 0)
(-0.000816587 3.19103e-05 0)
(-0.000810749 3.34701e-05 0)
(-0.000802704 3.57446e-05 0)
(-0.000792063 3.84962e-05 0)
(-0.000778476 4.12819e-05 0)
(-0.000761712 4.3441e-05 0)
(-1.09552e-05 0.000206945 0)
(-3.50922e-05 0.000232669 0)
(-6.10614e-05 0.00023331 0)
(-8.66095e-05 0.00023267 0)
(-0.000112083 0.000231764 0)
(-0.000137445 0.000230627 0)
(-0.000162667 0.00022926 0)
(-0.000187725 0.000227665 0)
(-0.000212592 0.000225847 0)
(-0.000237245 0.000223806 0)
(-0.000261658 0.000221546 0)
(-0.000285807 0.000219071 0)
(-0.000309668 0.000216385 0)
(-0.000333219 0.000213491 0)
(-0.000356437 0.000210395 0)
(-0.000379298 0.0002071 0)
(-0.000401782 0.000203612 0)
(-0.000423866 0.000199936 0)
(-0.000445531 0.000196078 0)
(-0.000466756 0.000192043 0)
(-0.000487522 0.000187839 0)
(-0.00050781 0.000183471 0)
(-0.000527602 0.000178945 0)
(-0.000546881 0.00017427 0)
(-0.000565629 0.000169452 0)
(-0.000583831 0.0001645 0)
(-0.000601472 0.00015942 0)
(-0.000618537 0.000154223 0)
(-0.000635012 0.000148915 0)
(-0.000650884 0.000143507 0)
(-0.000666141 0.000138009 0)
(-0.000680772 0.00013243 0)
(-0.000694765 0.000126781 0)
(-0.00070811 0.000121075 0)
(-0.000720798 0.000115324 0)
(-0.00073282 0.000109541 0)
(-0.000744168 0.000103741 0)
(-0.000754833 9.79394e-05 0)
(-0.000764808 9.21547e-05 0)
(-0.000774086 8.64058e-05 0)
(-0.000782659 8.07143e-05 0)
(-0.000790518 7.51041e-05 0)
(-0.000797654 6.9602e-05 0)
(-0.000804056 6.42384e-05 0)
(-0.000809711 5.90469e-05 0)
(-0.0008146 5.40659e-05 0)
(-0.000818702 4.93377e-05 0)
(-0.000821986 4.49097e-05 0)
(-0.00082441 4.08335e-05 0)
(-0.000825921 3.71642e-05 0)
(-0.000826448 3.39586e-05 0)
(-0.000825895 3.12711e-05 0)
(-0.00082414 2.91485e-05 0)
(-0.000821028 2.76196e-05 0)
(-0.000816368 2.66818e-05 0)
(-0.000809936 2.62814e-05 0)
(-0.000801479 2.62896e-05 0)
(-0.000790755 2.6474e-05 0)
(-0.000777567 2.64641e-05 0)
(-0.00076182 2.57784e-05 0)
(-1.10608e-05 0.000229769 0)
(-3.54304e-05 0.000258317 0)
(-6.165e-05 0.000259028 0)
(-8.74439e-05 0.000258316 0)
(-0.000113162 0.000257308 0)
(-0.000138767 0.000256043 0)
(-0.000164231 0.000254523 0)
(-0.000189527 0.00025275 0)
(-0.00021463 0.000250727 0)
(-0.000239515 0.000248457 0)
(-0.000264157 0.000245944 0)
(-0.000288531 0.000243191 0)
(-0.000312614 0.000240203 0)
(-0.000336381 0.000236985 0)
(-0.00035981 0.000233541 0)
(-0.000382878 0.000229877 0)
(-0.000405563 0.000225998 0)
(-0.000427843 0.000221909 0)
(-0.000449697 0.000217618 0)
(-0.000471105 0.000213131 0)
(-0.000492048 0.000208455 0)
(-0.000512505 0.000203596 0)
(-0.000532459 0.000198562 0)
(-0.000551892 0.000193361 0)
(-0.000570787 0.000188001 0)
(-0.000589128 0.00018249 0)
(-0.000606899 0.000176838 0)
(-0.000624084 0.000171052 0)
(-0.000640671 0.000165144 0)
(-0.000656645 0.000159122 0)
(-0.000671993 0.000152997 0)
(-0.000686704 0.00014678 0)
(-0.000700766 0.000140483 0)
(-0.000714167 0.000134118 0)
(-0.000726898 0.000127698 0)
(-0.000738949 0.000121237 0)
(-0.000750309 0.000114751 0)
(-0.000760971 0.000108254 0)
(-0.000770924 0.000101766 0)
(-0.000780159 9.53051e-05 0)
(-0.000788666 8.88924e-05 0)
(-0.000796436 8.25508e-05 0)
(-0.000803454 7.63059e-05 0)
(-0.000809708 7.01853e-05 0)
(-0.00081518 6.42197e-05 0)
(-0.00081985 5.84425e-05 0)
(-0.000823691 5.28899e-05 0)
(-0.000826669 4.76006e-05 0)
(-0.000828742 4.26149e-05 0)
(-0.000829854 3.79737e-05 0)
(-0.000829938 3.37153e-05 0)
(-0.000828905 2.98726e-05 0)
(-0.000826648 2.64663e-05 0)
(-0.000823039 2.34979e-05 0)
(-0.000817925 2.09378e-05 0)
(-0.000811141 1.8713e-05 0)
(-0.000802511 1.6691e-05 0)
(-0.000791889 1.46574e-05 0)
(-0.000779171 1.23229e-05 0)
(-0.000764347 9.33633e-06 0)
(-1.11777e-05 0.000252823 0)
(-3.58049e-05 0.000284225 0)
(-6.23015e-05 0.000285005 0)
(-8.83676e-05 0.00028422 0)
(-0.000114356 0.000283109 0)
(-0.000140231 0.000281714 0)
(-0.000165961 0.000280038 0)
(-0.000191521 0.000278083 0)
(-0.000216885 0.000275853 0)
(-0.000242028 0.000273351 0)
(-0.000266923 0.000270581 0)
(-0.000291547 0.000267546 0)
(-0.000315874 0.000264253 0)
(-0.000339882 0.000260705 0)
(-0.000363545 0.000256908 0)
(-0.000386842 0.000252869 0)
(-0.000409749 0.000248592 0)
(-0.000432245 0.000244086 0)
(-0.000454309 0.000239355 0)
(-0.00047592 0.000234408 0)
(-0.000497058 0.000229253 0)
(-0.000517703 0.000223896 0)
(-0.000537837 0.000218346 0)
(-0.000557442 0.000212611 0)
(-0.0005765 0.0002067 0)
(-0.000594995 0.000200623 0)
(-0.00061291 0.000194388 0)
(-0.000630231 0.000188005 0)
(-0.000646943 0.000181485 0)
(-0.000663031 0.000174839 0)
(-0.000678483 0.000168077 0)
(-0.000693285 0.00016121 0)
(-0.000707427 0.000154252 0)
(-0.000720895 0.000147215 0)
(-0.000733679 0.000140113 0)
(-0.000745767 0.000132959 0)
(-0.00075715 0.00012577 0)
(-0.000767817 0.000118561 0)
(-0.000777757 0.00011135 0)
(-0.00078696 0.000104156 0)
(-0.000795413 9.69989e-05 0)
(-0.000803104 8.99008e-05 0)
(-0.000810019 8.2885e-05 0)
(-0.000816142 7.5977e-05 0)
(-0.000821454 6.92039e-05 0)
(-0.00082593 6.25945e-05 0)
(-0.000829544 5.6179e-05 0)
(-0.000832261 4.99884e-05 0)
(-0.000834037 4.40533e-05 0)
(-0.000834821 3.84026e-05 0)
(-0.000834549 3.30605e-05 0)
(-0.000833144 2.80436e-05 0)
(-0.000830515 2.33554e-05 0)
(-0.000826556 1.89801e-05 0)
(-0.000821153 1.4875e-05 0)
(-0.000814183 1.09611e-05 0)
(-0.000805535 7.11192e-06 0)
(-0.000795123 3.15127e-06 0)
(-0.000782888 -1.13875e-06 0)
(-0.000768834 -6.02007e-06 0)
(-1.13061e-05 0.000276132 0)
(-3.62163e-05 0.000310419 0)
(-6.30172e-05 0.000311269 0)
(-8.93821e-05 0.000310409 0)
(-0.000115669 0.000309194 0)
(-0.000141838 0.000307667 0)
(-0.000167861 0.000305832 0)
(-0.000193712 0.000303693 0)
(-0.000219362 0.000301252 0)
(-0.000244787 0.000298513 0)
(-0.000269961 0.000295481 0)
(-0.000294859 0.00029216 0)
(-0.000319455 0.000288556 0)
(-0.000343726 0.000284673 0)
(-0.000367646 0.000280518 0)
(-0.000391194 0.000276097 0)
(-0.000414346 0.000271417 0)
(-0.00043708 0.000266485 0)
(-0.000459374 0.000261308 0)
(-0.000481208 0.000255894 0)
(-0.00050256 0.000250252 0)
(-0.000523412 0.000244389 0)
(-0.000543744 0.000238314 0)
(-0.000563538 0.000232037 0)
(-0.000582776 0.000225566 0)
(-0.00060144 0.000218912 0)
(-0.000619516 0.000212085 0)
(-0.000636987 0.000205096 0)
(-0.000653837 0.000197954 0)
(-0.000670054 0.000190672 0)
(-0.000685622 0.000183261 0)
(-0.000700528 0.000175733 0)
(-0.000714761 0.000168101 0)
(-0.000728307 0.000160378 0)
(-0.000741154 0.000152579 0)
(-0.000753292 0.000144717 0)
(-0.000764708 0.000136808 0)
(-0.000775391 0.000128869 0)
(-0.000785329 0.000120917 0)
(-0.00079451 0.00011297 0)
(-0.000802922 0.000105046 0)
(-0.000810549 9.71681e-05 0)
(-0.000817378 8.93563e-05 0)
(-0.000823389 8.16338e-05 0)
(-0.000828563 7.40244e-05 0)
(-0.000832875 6.65529e-05 0)
(-0.000836297 5.92438e-05 0)
(-0.000838795 5.21217e-05 0)
(-0.000840327 4.52091e-05 0)
(-0.000840847 3.85254e-05 0)
(-0.000840297 3.20845e-05 0)
(-0.00083861 2.58915e-05 0)
(-0.000835712 1.99389e-05 0)
(-0.000831519 1.42018e-05 0)
(-0.000825944 8.63238e-06 0)
(-0.000818904 3.15429e-06 0)
(-0.000810321 -2.34231e-06 0)
(-0.000800139 -7.99601e-06 0)
(-0.000788343 -1.39758e-05 0)
(-0.000774968 -2.04797e-05 0)
(-1.14462e-05 0.000299719 0)
(-3.66651e-05 0.000336925 0)
(-6.3798e-05 0.000337846 0)
(-9.04891e-05 0.000336911 0)
(-0.0001171 0.000335588 0)
(-0.000143592 0.000333927 0)
(-0.000169935 0.000331931 0)
(-0.000196101 0.000329604 0)
(-0.000222065 0.000326948 0)
(-0.000247798 0.000323969 0)
(-0.000273276 0.000320671 0)
(-0.000298472 0.000317058 0)
(-0.000323362 0.000313137 0)
(-0.000347919 0.000308914 0)
(-0.000372121 0.000304394 0)
(-0.000395943 0.000299585 0)
(-0.000419361 0.000294495 0)
(-0.000442354 0.00028913 0)
(-0.0004649 0.000283498 0)
(-0.000486977 0.000277609 0)
(-0.000508564 0.000271471 0)
(-0.000529641 0.000265093 0)
(-0.000550189 0.000258485 0)
(-0.00057019 0.000251655 0)
(-0.000589624 0.000244615 0)
(-0.000608475 0.000237375 0)
(-0.000626727 0.000229946 0)
(-0.000644362 0.000222338 0)
(-0.000661366 0.000214563 0)
(-0.000677724 0.000206633 0)
(-0.000693422 0.000198561 0)
(-0.000708445 0.000190359 0)
(-0.000722781 0.00018204 0)
(-0.000736417 0.000173618 0)
(-0.00074934 0.000165107 0)
(-0.000761538 0.000156521 0)
(-0.000772998 0.000147878 0)
(-0.000783709 0.000139191 0)
(-0.000793657 0.000130479 0)
(-0.00080283 0.000121759 0)
(-0.000811214 0.000113049 0)
(-0.000818794 0.000104369 0)
(-0.000825554 9.57382e-05 0)
(-0.000831474 8.71774e-05 0)
(-0.000836535 7.87074e-05 0)
(-0.000840711 7.0349e-05 0)
(-0.000843975 6.21224e-05 0)
(-0.000846295 5.40465e-05 0)
(-0.000847633 4.61376e-05 0)
(-0.000847946 3.84081e-05 0)
(-0.000847183 3.08642e-05 0)
(-0.000845289 2.35037e-05 0)
(-0.000842204 1.63128e-05 0)
(-0.000837863 9.26278e-06 0)
(-0.000832201 2.30627e-06 0)
(-0.000825157 -4.6258e-06 0)
(-0.000816685 -1.1624e-05 0)
(-0.000806756 -1.88042e-05 0)
(-0.000795372 -2.63028e-05 0)
(-0.000782572 -3.42635e-05 0)
(-1.15982e-05 0.000323609 0)
(-3.71521e-05 0.000363772 0)
(-6.46452e-05 0.000364764 0)
(-9.16902e-05 0.000363751 0)
(-0.000118653 0.00036232 0)
(-0.000145495 0.000360522 0)
(-0.000172185 0.000358362 0)
(-0.000198694 0.000355842 0)
(-0.000224997 0.000352968 0)
(-0.000251065 0.000349744 0)
(-0.000276872 0.000346174 0)
(-0.000302393 0.000342264 0)
(-0.0003276 0.000338021 0)
(-0.000352469 0.00033345 0)
(-0.000376975 0.000328559 0)
(-0.000401094 0.000323355 0)
(-0.000424802 0.000317846 0)
(-0.000448076 0.00031204 0)
(-0.000470895 0.000305946 0)
(-0.000493235 0.000299573 0)
(-0.000515077 0.000292931 0)
(-0.000536399 0.000286028 0)
(-0.000557182 0.000278876 0)
(-0.000577407 0.000271485 0)
(-0.000597056 0.000263865 0)
(-0.00061611 0.000256027 0)
(-0.000634554 0.000247984 0)
(-0.000652369 0.000239747 0)
(-0.000669542 0.000231327 0)
(-0.000686056 0.000222738 0)
(-0.000701896 0.000213992 0)
(-0.00071705 0.000205102 0)
(-0.000731502 0.000196082 0)
(-0.00074524 0.000186946 0)
(-0.00075825 0.000177709 0)
(-0.000770521 0.000168384 0)
(-0.000782038 0.000158989 0)
(-0.000792789 0.000149538 0)
(-0.000802761 0.000140049 0)
(-0.00081194 0.000130538 0)
(-0.000820312 0.000121022 0)
(-0.00082786 0.00011152 0)
(-0.000834569 0.00010205 0)
(-0.00084042 9.26304e-05 0)
(-0.000845391 8.32791e-05 0)
(-0.00084946 7.40139e-05 0)
(-0.000852599 6.48512e-05 0)
(-0.000854779 5.58056e-05 0)
(-0.000855966 4.68886e-05 0)
(-0.000856121 3.81074e-05 0)
(-0.000855201 2.94634e-05 0)
(-0.000853161 2.095e-05 0)
(-0.000849953 1.25504e-05 0)
(-0.000845526 4.23532e-06 0)
(-0.000839833 -4.0392e-06 0)
(-0.000832834 -1.23331e-05 0)
(-0.0008245 -2.07237e-05 0)
(-0.000814818 -2.93028e-05 0)
(-0.000803802 -3.81748e-05 0)
(-0.000791493 -4.74483e-05 0)
(-1.17624e-05 0.000347827 0)
(-3.76781e-05 0.000390987 0)
(-6.55603e-05 0.000392051 0)
(-9.29874e-05 0.000390959 0)
(-0.000120331 0.000389416 0)
(-0.00014755 0.000387479 0)
(-0.000174614 0.000385151 0)
(-0.000201495 0.000382436 0)
(-0.000228163 0.000379339 0)
(-0.000254593 0.000375864 0)
(-0.000280756 0.000372017 0)
(-0.000306626 0.000367804 0)
(-0.000332176 0.000363232 0)
(-0.000357381 0.000358307 0)
(-0.000382216 0.000353037 0)
(-0.000406656 0.00034743 0)
(-0.000430676 0.000341494 0)
(-0.000454254 0.000335239 0)
(-0.000477367 0.000328673 0)
(-0.000499992 0.000321807 0)
(-0.000522109 0.00031465 0)
(-0.000543696 0.000307213 0)
(-0.000564733 0.000299507 0)
(-0.000585201 0.000291543 0)
(-0.000605081 0.000283331 0)
(-0.000624356 0.000274885 0)
(-0.000643008 0.000266217 0)
(-0.000661019 0.000257337 0)
(-0.000678375 0.00024826 0)
(-0.00069506 0.000238999 0)
(-0.000711058 0.000229566 0)
(-0.000726355 0.000219975 0)
(-0.000740937 0.00021024 0)
(-0.00075479 0.000200376 0)
(-0.000767901 0.000190397 0)
(-0.000780257 0.000180319 0)
(-0.000791844 0.000170156 0)
(-0.000802649 0.000159924 0)
(-0.000812658 0.00014964 0)
(-0.000821857 0.000139321 0)
(-0.000830232 0.000128981 0)
(-0.000837766 0.00011864 0)
(-0.000844444 0.000108312 0)
(-0.000850245 9.80152e-05 0)
(-0.000855151 8.77651e-05 0)
(-0.000859139 7.75767e-05 0)
(-0.000862184 6.74637e-05 0)
(-0.000864258 5.74371e-05 0)
(-0.000865331 4.75051e-05 0)
(-0.000865371 3.76715e-05 0)
(-0.00086434 2.79346e-05 0)
(-0.000862203 1.82855e-05 0)
(-0.000858919 8.70679e-06 0)
(-0.000854452 -8.29336e-07 0)
(-0.000848769 -1.0362e-05 0)
(-0.000841842 -1.99425e-05 0)
(-0.000833655 -2.96339e-05 0)
(-0.000824207 -3.95096e-05 0)
(-0.000813517 -4.965e-05 0)
(-0.000801625 -6.01369e-05 0)
(-1.1939e-05 0.000372398 0)
(-3.82439e-05 0.0004186 0)
(-6.65445e-05 0.000419735 0)
(-9.43826e-05 0.000418563 0)
(-0.000122135 0.000416907 0)
(-0.000149761 0.000414826 0)
(-0.000177227 0.000412327 0)
(-0.000204506 0.000409412 0)
(-0.000231569 0.000406087 0)
(-0.000258387 0.000402356 0)
(-0.000284932 0.000398227 0)
(-0.000311178 0.000393704 0)
(-0.000337097 0.000388795 0)
(-0.000362664 0.000383509 0)
(-0.000387852 0.000377851 0)
(-0.000412636 0.000371833 0)
(-0.000436993 0.000365462 0)
(-0.000460897 0.000358748 0)
(-0.000484326 0.0003517 0)
(-0.000507258 0.000344331 0)
(-0.00052967 0.000336649 0)
(-0.000551542 0.000328667 0)
(-0.000572852 0.000320396 0)
(-0.000593582 0.000311847 0)
(-0.000613713 0.000303033 0)
(-0.000633225 0.000293966 0)
(-0.000652102 0.00028466 0)
(-0.000670326 0.000275126 0)
(-0.00068788 0.000265379 0)
(-0.00070475 0.000255431 0)
(-0.00072092 0.000245297 0)
(-0.000736375 0.000234991 0)
(-0.000751101 0.000224528 0)
(-0.000765083 0.000213921 0)
(-0.000778308 0.000203185 0)
(-0.000790762 0.000192337 0)
(-0.000802432 0.000181391 0)
(-0.000813304 0.000170363 0)
(-0.000823365 0.000159268 0)
(-0.000832599 0.000148123 0)
(-0.000840993 0.000136943 0)
(-0.00084853 0.000125745 0)
(-0.000855194 0.000114543 0)
(-0.000860967 0.000103353 0)
(-0.00086583 9.21897e-05 0)
(-0.000869761 8.10649e-05 0)
(-0.000872739 6.99904e-05 0)
(-0.000874738 5.8975e-05 0)
(-0.000875731 4.80245e-05 0)
(-0.000875691 3.71407e-05 0)
(-0.000874587 2.632e-05 0)
(-0.000872389 1.55531e-05 0)
(-0.000869068 4.82314e-06 0)
(-0.000864594 -5.89501e-06 0)
(-0.000858946 -1.66349e-05 0)
(-0.000852106 -2.74393e-05 0)
(-0.000844067 -3.83595e-05 0)
(-0.000834834 -4.94532e-05 0)