/*--------------------------------*- C++ -*----------------------------------*\
  =========                 |
  \\      /  F ield         | OpenFOAM: The Open Source CFD Toolbox
   \\    /   O peration     | Website:  https://openfoam.org
    \\  /    A nd           | Version:  8
     \\/     M anipulation  |
\*---------------------------------------------------------------------------*/
FoamFile
{
    version     2.0;
    format      ascii;
    class       volScalarField;
    location    "1.38";
    object      p;
}
// * * * * * * * * * * * * * * * * * * * * * * * * * * * * * * * * * * * * * //

dimensions      [0 2 -2 0 0 0 0];

internalField   nonuniform List<scalar> 
400
(
-5.35692e-16
-1.63785e-14
-5.08518e-13
-1.01158e-12
-1.35329e-12
-1.62907e-12
-1.88215e-12
-2.13686e-12
-2.38876e-12
-2.64132e-12
-2.88831e-12
-3.11655e-12
-3.30367e-12
-3.41112e-12
-3.407e-12
-3.24405e-12
-2.89727e-12
-2.3278e-12
-1.48787e-12
-5.50653e-13
-7.99544e-13
-8.58273e-13
-1.18809e-12
-1.50987e-12
-1.76201e-12
-1.95988e-12
-2.14965e-12
-2.3271e-12
-2.5066e-12
-2.681e-12
-2.85604e-12
-3.02364e-12
-3.16051e-12
-3.24893e-12
-3.24372e-12
-3.13018e-12
-2.86692e-12
-2.45978e-12
-1.88857e-12
-1.24158e-12
-1.81763e-12
-1.807e-12
-1.9129e-12
-2.06155e-12
-2.17694e-12
-2.28631e-12
-2.37991e-12
-2.48505e-12
-2.58465e-12
-2.69827e-12
-2.81901e-12
-2.94395e-12
-3.06482e-12
-3.14551e-12
-3.17877e-12
-3.11894e-12
-2.97938e-12
-2.73084e-12
-2.41247e-12
-2.07106e-12
-2.66851e-12
-2.58151e-12
-2.56256e-12
-2.55606e-12
-2.56745e-12
-2.56979e-12
-2.5951e-12
-2.61573e-12
-2.66435e-12
-2.72511e-12
-2.8134e-12
-2.92193e-12
-3.03321e-12
-3.14186e-12
-3.20041e-12
-3.22217e-12
-3.17152e-12
-3.08215e-12
-2.93479e-12
-2.78505e-12
-3.23931e-12
-3.13835e-12
-3.03573e-12
-2.95532e-12
-2.87735e-12
-2.83033e-12
-2.77694e-12
-2.7588e-12
-2.75379e-12
-2.79316e-12
-2.86075e-12
-2.95962e-12
-3.08415e-12
-3.20145e-12
-3.31441e-12
-3.37573e-12
-3.41989e-12
-3.41223e-12
-3.38581e-12
-3.31953e-12
-3.60735e-12
-3.48097e-12
-3.34584e-12
-3.21419e-12
-3.11712e-12
-3.01604e-12
-2.94675e-12
-2.88461e-12
-2.87847e-12
-2.90293e-12
-2.97631e-12
-3.08211e-12
-3.20823e-12
-3.3536e-12
-3.47746e-12
-3.59718e-12
-3.66732e-12
-3.72275e-12
-3.7236e-12
-3.69316e-12
-3.81581e-12
-3.67121e-12
-3.51342e-12
-3.3806e-12
-3.25625e-12
-3.16134e-12
-3.06513e-12
-3.02366e-12
-3.01477e-12
-3.07022e-12
-3.15825e-12
-3.28172e-12
-3.4244e-12
-3.56574e-12
-3.71385e-12
-3.8273e-12
-3.92729e-12
-3.96466e-12
-3.97261e-12
-3.91567e-12
-3.91118e-12
-3.75848e-12
-3.60191e-12
-3.45943e-12
-3.3497e-12
-3.24305e-12
-3.18017e-12
-3.14603e-12
-3.18645e-12
-3.26481e-12
-3.39337e-12
-3.53731e-12
-3.68697e-12
-3.83551e-12
-3.95898e-12
-4.07434e-12
-4.1355e-12
-4.16173e-12
-4.11658e-12
-4.04057e-12
-3.95843e-12
-3.79718e-12
-3.64228e-12
-3.51145e-12
-3.39971e-12
-3.32545e-12
-3.27537e-12
-3.2963e-12
-3.36035e-12
-3.48942e-12
-3.63865e-12
-3.80717e-12
-3.96339e-12
-4.09559e-12
-4.20721e-12
-4.27605e-12
-4.316e-12
-4.28463e-12
-4.21659e-12
-4.095e-12
-3.98659e-12
-3.8318e-12
-3.68106e-12
-3.55589e-12
-3.46644e-12
-3.40625e-12
-3.40498e-12
-3.44781e-12
-3.5608e-12
-3.7018e-12
-3.87941e-12
-4.04884e-12
-4.20445e-12
-4.32481e-12
-4.40324e-12
-4.44803e-12
-4.43538e-12
-4.38442e-12
-4.27271e-12
-4.14483e-12
-4.03838e-12
-3.87943e-12
-3.74258e-12
-3.62906e-12
-3.55386e-12
-3.52764e-12
-3.54699e-12
-3.63046e-12
-3.74737e-12
-3.90923e-12
-4.07351e-12
-4.24391e-12
-4.38311e-12
-4.48763e-12
-4.54778e-12
-4.55723e-12
-4.52839e-12
-4.44325e-12
-4.33336e-12
-4.18586e-12
-4.09875e-12
-3.96102e-12
-3.83092e-12
-3.73686e-12
-3.68057e-12
-3.67252e-12
-3.72036e-12
-3.80632e-12
-3.93534e-12
-4.07273e-12
-4.2295e-12
-4.36794e-12
-4.49441e-12
-4.57924e-12
-4.62402e-12
-4.62283e-12
-4.57441e-12
-4.49524e-12
-4.37688e-12
-4.24933e-12
-4.18602e-12
-4.05515e-12
-3.95257e-12
-3.86973e-12
-3.83359e-12
-3.84189e-12
-3.89485e-12
-3.98606e-12
-4.09033e-12
-4.2131e-12
-4.327e-12
-4.44605e-12
-4.53895e-12
-4.61463e-12
-4.64793e-12
-4.64239e-12
-4.5997e-12
-4.52206e-12
-4.42819e-12
-4.30704e-12
-4.26933e-12
-4.17217e-12
-4.07925e-12
-4.02281e-12
-3.99384e-12
-4.01169e-12
-4.0648e-12
-4.13901e-12
-4.22871e-12
-4.3124e-12
-4.40421e-12
-4.48052e-12
-4.55953e-12
-4.61136e-12
-4.64605e-12
-4.64088e-12
-4.60518e-12
-4.54725e-12
-4.46608e-12
-4.37843e-12
-4.36489e-12
-4.27808e-12
-4.21331e-12
-4.16203e-12
-4.14939e-12
-4.16256e-12
-4.20722e-12
-4.2679e-12
-4.33026e-12
-4.39837e-12
-4.45394e-12
-4.51707e-12
-4.56523e-12
-4.61532e-12
-4.64029e-12
-4.64495e-12
-4.61704e-12
-4.57017e-12
-4.51352e-12
-4.439e-12
-4.44318e-12
-4.38175e-12
-4.31882e-12
-4.28638e-12
-4.26881e-12
-4.28304e-12
-4.31227e-12
-4.35748e-12
-4.40931e-12
-4.45707e-12
-4.50945e-12
-4.55043e-12
-4.60026e-12
-4.63357e-12
-4.66459e-12
-4.6661e-12
-4.64708e-12
-4.60916e-12
-4.55965e-12
-4.5084e-12
-4.51767e-12
-4.4542e-12
-4.40519e-12
-4.36587e-12
-4.35578e-12
-4.35614e-12
-4.37945e-12
-4.41437e-12
-4.45845e-12
-4.50928e-12
-4.55475e-12
-4.60715e-12
-4.64742e-12
-4.6898e-12
-4.71025e-12
-4.71807e-12
-4.697e-12
-4.66179e-12
-4.61708e-12
-4.56527e-12
-4.56195e-12
-4.50801e-12
-4.44806e-12
-4.41118e-12
-4.38845e-12
-4.38796e-12
-4.40161e-12
-4.43639e-12
-4.48571e-12
-4.54228e-12
-4.60697e-12
-4.66401e-12
-4.72001e-12
-4.75746e-12
-4.78466e-12
-4.78407e-12
-4.76532e-12
-4.72447e-12
-4.67154e-12
-4.61908e-12
-4.58806e-12
-4.51892e-12
-4.45527e-12
-4.40139e-12
-4.37345e-12
-4.36298e-12
-4.37996e-12
-4.4207e-12
-4.48466e-12
-4.5632e-12
-4.64526e-12
-4.72776e-12
-4.79241e-12
-4.84329e-12
-4.86639e-12
-4.86896e-12
-4.84264e-12
-4.79536e-12
-4.72935e-12
-4.65682e-12
-4.59953e-12
-4.5101e-12
-4.42648e-12
-4.36048e-12
-4.31565e-12
-4.3044e-12
-4.32445e-12
-4.37922e-12
-4.46305e-12
-4.56542e-12
-4.67453e-12
-4.77652e-12
-4.86327e-12
-4.92251e-12
-4.95501e-12
-4.95564e-12
-4.9265e-12
-4.86872e-12
-4.7862e-12
-4.69181e-12
)
;

boundaryField
{
    movingWall
    {
        type            zeroGradient;
    }
    fixedWalls
    {
        type            zeroGradient;
    }
    left
    {
        type            cyclic;
    }
    right
    {
        type            cyclic;
    }
    frontAndBack
    {
        type            empty;
    }
}


// ************************************************************************* //
