/*--------------------------------*- C++ -*----------------------------------*\
  =========                 |
  \\      /  F ield         | OpenFOAM: The Open Source CFD Toolbox
   \\    /   O peration     | Website:  https://openfoam.org
    \\  /    A nd           | Version:  8
     \\/     M anipulation  |
\*---------------------------------------------------------------------------*/
FoamFile
{
    version     2.0;
    format      ascii;
    class       volScalarField;
    location    "96";
    object      p;
}
// * * * * * * * * * * * * * * * * * * * * * * * * * * * * * * * * * * * * * //

dimensions      [0 2 -2 0 0 0 0];

internalField   nonuniform List<scalar> 
2844
(
-0.0550597
-0.0698213
-0.0898425
-0.114693
-0.129074
-0.131984
-0.12049
-0.100191
-0.0729498
-0.0516074
-0.032795
-0.0114825
0.00749164
0.0228516
0.0358376
0.0427431
0.0443584
0.0420979
0.0382039
0.0142901
-0.0468934
-0.0609707
-0.0817284
-0.112349
-0.127775
-0.13178
-0.120693
-0.100795
-0.0671346
-0.0472338
-0.0286564
-0.0068056
0.0110308
0.024036
0.0370191
0.0438628
0.0429682
0.0426568
0.0405825
0.0136777
-0.0321031
-0.0646069
-0.0968811
-0.143699
-0.164196
-0.16374
-0.139782
-0.113545
-0.0704535
-0.0566502
-0.0410775
-0.0156668
0.00419742
0.0217457
0.0383407
0.0457639
0.0454467
0.0412694
0.0379654
0.0087319
0.000673251
-0.0282131
-0.0679228
-0.148054
-0.168523
-0.169111
-0.143315
-0.117915
-0.0486874
-0.0454922
-0.0244869
-0.000197637
0.0135171
0.0195609
0.0355649
0.0450271
0.0244784
0.0346081
0.0273196
-0.000890998
0.0419295
-0.0320106
-0.103818
-0.234217
-0.26089
-0.232354
-0.182973
-0.15288
-0.0335322
-0.0668483
-0.067935
-0.0171624
0.000752588
0.00744014
0.0284352
0.012781
-0.0128945
-0.00704893
-0.0515068
-0.013831
0.121
0.056483
-0.0485153
-0.342569
-0.282378
-0.28232
-0.205115
-0.187592
0.0160224
-0.0397522
-0.0343872
-0.00633483
-0.0198322
-0.0202852
0.0246867
0.00442225
-0.0814496
-0.172017
-0.202858
-0.0145482
0.222162
0.103786
-0.217277
-0.503103
-0.5665
-0.350136
-0.321066
-0.240147
0.0754606
-0.0870867
-0.156044
-0.0358237
-0.0519963
-0.0781839
-0.0358346
-0.105015
-0.185245
-0.313826
-0.292397
-0.0241529
0.315737
0.346349
-0.116404
-0.821235
-0.96429
-0.488427
-0.475272
-0.399152
0.3546
-0.0426962
-0.227784
-0.113355
-0.177301
-0.119815
-0.0393461
-0.0468713
-0.0680699
-0.222045
-0.191965
-0.0207858
0.750211
0.614687
0.165698
-0.446366
-0.505848
0.331849
-0.25126
-0.220858
-0.15778
-0.220885
-0.143017
-0.087253
-0.0755404
-0.111252
-0.138069
-0.0859816
-0.02443
0.955817
1.00115
1.01352
-0.473887
-0.533925
-0.113092
-0.327085
-0.210692
-0.186389
-0.170487
-0.158464
-0.100182
-0.0673385
-0.0359748
0.00248868
0.000566275
-0.00256488
1.07259
1.07503
-0.484981
-0.577694
-0.543447
-0.266414
-0.152917
-0.336797
-0.108749
-0.122802
-0.124277
-0.0552536
0.0155982
-0.0244606
-0.0190782
0.000508156
0.479507
0.636326
0.918363
-0.442284
-0.516979
-0.708658
-0.160469
-0.0718576
-0.181334
0.00590676
-0.0345276
-0.0720469
-0.125511
-0.0444287
-0.122617
-0.114766
-0.0253934
0.290299
0.410886
-0.243808
-0.356975
-0.439385
-0.396347
-0.581661
-0.180587
-0.0890291
-0.221517
-0.0425622
0.157306
0.120325
0.0230995
-0.0133318
-0.0382673
-0.0468437
-0.0200193
0.195763
0.155243
-0.165791
-0.561906
-0.868124
-0.413247
-0.313933
-0.281178
-0.275305
-0.165147
-0.105423
-0.160405
-0.184622
-0.129281
-0.053161
-0.0210746
-0.0652128
-0.0379314
-0.0182621
-0.00242878
0.0806954
0.0831563
-0.10647
-0.248104
-0.381594
-0.328129
-0.250929
-0.231801
-0.230413
-0.112373
-0.057838
-0.0715334
0.0139963
0.1013
0.115944
0.0792058
0.0176807
0.004934
0.0246393
0.0127143
0.0285459
-0.00830459
-0.0961819
-0.246158
-0.285458
-0.249748
-0.218129
-0.191438
-0.170582
-0.12692
-0.0934764
-0.0690864
-0.0504392
-0.0136846
0.035518
0.0662374
0.019896
0.00383808
0.024564
0.00888072
-0.0191238
-0.0432301
-0.103562
-0.173489
-0.211404
-0.214395
-0.189018
-0.169874
-0.147101
-0.105003
-0.0640305
-0.0391676
0.0066417
0.0402763
0.0579658
0.0571052
0.0374259
0.0208889
0.0201757
0.00941683
-0.0450967
-0.0685331
-0.107124
-0.156423
-0.186879
-0.190136
-0.170695
-0.154047
-0.132154
-0.103441
-0.075859
-0.0507779
-0.0267927
0.00272109
0.0253606
0.0356605
0.0230951
0.0126989
0.0168917
0.00686664
-0.0638141
-0.0806352
-0.10973
-0.142016
-0.162649
-0.17158
-0.161179
-0.144961
-0.123879
-0.0957906
-0.0665335
-0.0402532
-0.0139581
0.0112779
0.0267386
0.0320438
0.0284908
0.0194809
0.0135988
0.00571944
-0.0713422
-0.0864934
-0.110406
-0.137746
-0.157152
-0.165684
-0.15633
-0.140984
-0.120121
-0.0947374
-0.0686066
-0.0440827
-0.0214953
0.00188563
0.0177788
0.0248289
0.0220986
0.0157716
0.0119863
0.00485829
-0.0550628
-0.0697979
-0.0898563
-0.114723
-0.129106
-0.131993
-0.120478
-0.100186
-0.0729487
-0.0516107
-0.0327924
-0.0114908
0.00749327
0.022845
0.0358525
0.0427653
0.0443683
0.0422278
0.038601
0.0144154
-0.0468913
-0.0609765
-0.0817983
-0.112435
-0.127849
-0.13185
-0.120662
-0.10081
-0.0671085
-0.0472185
-0.0286169
-0.0067951
0.0110901
0.0240013
0.0370581
0.0438819
0.0428214
0.0429923
0.0411989
0.0138099
-0.0320852
-0.0644886
-0.097154
-0.143994
-0.164563
-0.163836
-0.139907
-0.113562
-0.0704911
-0.0567506
-0.0411355
-0.0158733
0.00401141
0.0215693
0.0386964
0.0459128
0.0456393
0.0418007
0.038008
0.00859919
0.000766581
-0.0279398
-0.06845
-0.148311
-0.169649
-0.169536
-0.143176
-0.118038
-0.048518
-0.0455043
-0.0246375
-0.000704089
0.0140147
0.0191012
0.0345389
0.0442462
0.0248727
0.0344719
0.0251935
-0.000540169
0.0420268
-0.032206
-0.106257
-0.23695
-0.267216
-0.234008
-0.182831
-0.153592
-0.0352332
-0.068137
-0.0693485
-0.0228892
-0.00296206
0.00565142
0.0258302
0.00966035
-0.0183033
-0.0156931
-0.0587166
-0.012703
0.12163
0.0559082
-0.0558763
-0.333514
-0.317401
-0.288141
-0.209447
-0.181477
0.0235247
-0.0389478
-0.0324296
-0.00695779
-0.0227946
-0.0232371
0.0232544
0.000338635
-0.0820773
-0.174832
-0.208074
-0.0162535
0.220099
0.111723
-0.223146
-0.492359
-0.591107
-0.352422
-0.321761
-0.25329
0.0679007
-0.0974761
-0.156738
-0.032833
-0.0483727
-0.0811874
-0.0406806
-0.103718
-0.176621
-0.302388
-0.298654
-0.032831
0.322833
0.350479
-0.133011
-0.871578
-0.967
-0.510004
-0.496798
-0.388097
0.327515
-0.0518572
-0.221476
-0.103588
-0.178398
-0.126558
-0.0487994
-0.0549642
-0.0711073
-0.223957
-0.209752
-0.0284035
0.758014
0.624187
0.194255
-0.458454
-0.50652
0.319277
-0.275739
-0.222593
-0.151385
-0.231856
-0.147426
-0.09075
-0.0918451
-0.129282
-0.13775
-0.0880725
-0.025134
0.942225
1.01008
0.898221
-0.479008
-0.551613
-0.130858
-0.357877
-0.230615
-0.180011
-0.173103
-0.160528
-0.105855
-0.0716755
-0.045544
0.00510341
0.00248294
-0.00463849
1.03108
1.04371
-0.48474
-0.591211
-0.542399
-0.254595
-0.177654
-0.358913
-0.115461
-0.123889
-0.129859
-0.0571861
0.0230753
-0.015783
-0.0192852
-0.00414625
0.490331
0.653391
0.795649
-0.444291
-0.509725
-0.703065
-0.167289
-0.0822169
-0.203809
0.000347314
-0.0274905
-0.0753783
-0.125916
-0.0374827
-0.116582
-0.112551
-0.0233508
0.271843
0.397059
-0.271578
-0.421015
-0.452309
-0.400975
-0.575242
-0.179183
-0.0899895
-0.243151
-0.0620124
0.154496
0.121037
0.0210309
-0.0175505
-0.0373889
-0.0493066
-0.0200789
0.196182
0.158484
-0.191493
-0.56813
-0.884065
-0.411906
-0.316727
-0.284824
-0.270717
-0.163779
-0.106143
-0.15525
-0.180273
-0.133482
-0.0554339
-0.0187072
-0.0632175
-0.0419285
-0.0219126
-0.00400969
0.0800573
0.0831905
-0.102465
-0.249908
-0.422655
-0.327863
-0.252126
-0.23376
-0.232285
-0.112413
-0.0605435
-0.0695402
0.0207799
0.102515
0.112844
0.0795532
0.0184003
0.00370547
0.0248426
0.0129772
0.028597
-0.00805852
-0.098765
-0.249665
-0.290524
-0.250045
-0.222034
-0.192928
-0.169709
-0.127125
-0.0933554
-0.0701075
-0.0536128
-0.0149476
0.0366358
0.0651812
0.0194659
0.00374185
0.023324
0.00784171
-0.019145
-0.0432702
-0.103355
-0.174254
-0.212958
-0.215307
-0.188805
-0.16983
-0.14746
-0.105101
-0.06403
-0.0394405
0.00642395
0.0401737
0.057566
0.0562028
0.0377583
0.0210097
0.0199789
0.00942238
-0.0451159
-0.068523
-0.107106
-0.156922
-0.187443
-0.190236
-0.170973
-0.154008
-0.132066
-0.103446
-0.075827
-0.0508074
-0.0268341
0.00253027
0.0251701
0.0354512
0.0229474
0.0125008
0.016833
0.00680235
-0.063847
-0.0806175
-0.109691
-0.142129
-0.162711
-0.171586
-0.16119
-0.14494
-0.123885
-0.0957945
-0.0665051
-0.040286
-0.0140003
0.0112654
0.026699
0.0320297
0.0284861
0.0195126
0.0135895
0.00571991
-0.0713511
-0.0864891
-0.110401
-0.137779
-0.157167
-0.165696
-0.156355
-0.14098
-0.120118
-0.0947566
-0.0685927
-0.0440888
-0.0214756
0.00185982
0.0177613
0.0248369
0.0220895
0.0157597
0.0119828
0.00485608
-0.0550695
-0.0697675
-0.0898631
-0.114747
-0.129124
-0.131994
-0.120462
-0.100181
-0.0729475
-0.0516077
-0.0327859
-0.0114956
0.00749734
0.0228523
0.0358869
0.0428038
0.0444386
0.0424607
0.0392502
0.0146561
-0.046894
-0.0609679
-0.0818384
-0.112492
-0.127902
-0.131922
-0.120502
-0.100813
-0.0670821
-0.0472132
-0.0285936
-0.006758
0.0111367
0.0239328
0.0371395
0.044222
0.0433733
0.0435399
0.0419693
0.0140474
-0.0320904
-0.0643242
-0.0972879
-0.144209
-0.164701
-0.163847
-0.140058
-0.113582
-0.0703876
-0.0567118
-0.0410416
-0.0159413
0.00392815
0.0218327
0.0395868
0.0460527
0.0455297
0.0425871
0.0379886
0.00859209
0.000662542
-0.0274218
-0.0683723
-0.148246
-0.170484
-0.169754
-0.142974
-0.11778
-0.0482734
-0.0454828
-0.0248321
-0.000731742
0.0151922
0.0188999
0.0359327
0.0473576
0.0283337
0.0352989
0.0234714
8.66382e-05
0.0419326
-0.0320101
-0.105481
-0.238792
-0.27057
-0.235938
-0.181756
-0.153984
-0.0342089
-0.0664547
-0.0680486
-0.0220185
-0.00192291
0.00761619
0.0294232
0.011713
-0.0186205
-0.0221103
-0.0641907
-0.0120726
0.122345
0.0577177
-0.0555202
-0.322524
-0.327383
-0.288436
-0.213001
-0.177337
0.0228569
-0.036525
-0.0301511
-0.00415337
-0.0199065
-0.0171392
0.0235078
-0.00178092
-0.0822168
-0.171008
-0.20821
-0.0181497
0.219191
0.106653
-0.19591
-0.47153
-0.597968
-0.352621
-0.315693
-0.244598
0.0911647
-0.0982203
-0.162317
-0.0404631
-0.0617048
-0.0868705
-0.0401209
-0.0950839
-0.167115
-0.288342
-0.293634
-0.0374691
0.316365
0.391215
-0.146227
-0.847885
-0.964873
-0.48449
-0.502768
-0.359384
0.331414
-0.0687263
-0.213431
-0.0967013
-0.176265
-0.122417
-0.0402621
-0.0466179
-0.0633748
-0.205427
-0.199335
-0.0296372
0.750479
0.667052
0.141912
-0.473493
-0.470456
0.308204
-0.266339
-0.1908
-0.131574
-0.223577
-0.146891
-0.0901223
-0.0884216
-0.124599
-0.126051
-0.0780451
-0.0220068
0.915272
1.19288
0.971941
-0.484743
-0.557963
-0.168808
-0.347345
-0.231449
-0.178219
-0.159393
-0.156871
-0.0987929
-0.0677738
-0.0393392
0.005177
0.00436025
-0.00411719
0.989628
0.956374
-0.487673
-0.577668
-0.556536
-0.247775
-0.157735
-0.349789
-0.104609
-0.128327
-0.132829
-0.0481149
0.0307136
-0.00847683
-0.0120435
-0.00259813
0.522483
0.675496
0.784834
-0.444993
-0.47989
-0.700891
-0.163236
-0.0544888
-0.184537
-0.00278052
-0.0424682
-0.0827629
-0.122544
-0.0312308
-0.10892
-0.109507
-0.0219952
0.289804
0.444609
-0.326887
-0.440824
-0.463953
-0.403973
-0.569981
-0.179724
-0.0782709
-0.224719
-0.0456811
0.148683
0.117789
0.0189039
-0.0206453
-0.0351575
-0.048548
-0.0181376
0.196649
0.150499
-0.180283
-0.545499
-0.864283
-0.372752
-0.316279
-0.284798
-0.270322
-0.161477
-0.105347
-0.151194
-0.161352
-0.12147
-0.052956
-0.0186908
-0.0626428
-0.0419259
-0.0203287
-0.00323384
0.0796191
0.0815435
-0.111949
-0.25091
-0.435024
-0.325556
-0.248517
-0.232784
-0.231976
-0.11206
-0.059243
-0.0714839
0.0142538
0.100609
0.111313
0.0796547
0.0200401
0.00331555
0.0245918
0.0132598
0.0287301
-0.00877818
-0.100307
-0.248329
-0.288637
-0.247695
-0.221473
-0.190906
-0.167795
-0.126431
-0.0933562
-0.0704722
-0.0579064
-0.0158401
0.0377809
0.0647757
0.0192432
0.00366761
0.0238568
0.00785018
-0.0191476
-0.043332
-0.103007
-0.172745
-0.213533
-0.214775
-0.188242
-0.169273
-0.147217
-0.105091
-0.0640156
-0.0400096
0.00571563
0.0398887
0.0573252
0.0560364
0.0383177
0.0211698
0.0200957
0.00956284
-0.0451201
-0.0685216
-0.107088
-0.157091
-0.187494
-0.190141
-0.171105
-0.1539
-0.131972
-0.103446
-0.0757801
-0.0507832
-0.026935
0.00239655
0.0251915
0.0354622
0.0228876
0.0124442
0.0168145
0.00677025
-0.0638678
-0.0806068
-0.109667
-0.142149
-0.162717
-0.171541
-0.161183
-0.144897
-0.123876
-0.0957933
-0.0664876
-0.0403313
-0.014058
0.011252
0.0266758
0.0320323
0.0284969
0.0195596
0.0136025
0.00573229
-0.0713592
-0.0864855
-0.110398
-0.137797
-0.157161
-0.165689
-0.156371
-0.14097
-0.120115
-0.0947756
-0.0685762
-0.0440811
-0.0214668
0.0018409
0.0177547
0.0248532
0.0220867
0.0157519
0.0119795
0.00485634
-0.414812
-0.14116
-1.12228
-0.129436
-0.414336
-0.175565
-1.14342
-0.98772
-0.865052
-1.02058
-0.597218
-0.970706
-0.605888
-0.429248
-0.50711
-0.49907
-0.488485
-0.430997
-0.513303
-0.504652
0.461142
0.509337
0.741575
0.613788
0.459896
0.493637
0.749854
1.00423
0.197851
0.966588
-0.419474
-0.451646
-0.422361
-0.451396
-0.64244
-0.454647
-0.621491
-0.4488
-0.643251
-0.455295
-0.623117
0.897769
1.04894
1.12107
0.980082
0.862678
0.989315
1.03282
0.899036
-0.45385
-0.456639
-0.588067
-0.462315
-0.532639
-0.477128
-0.58604
-0.46442
-0.531889
1.06072
0.991226
0.968601
1.07676
1.0211
0.949408
0.943508
0.920161
0.862556
-0.433589
-0.435546
-0.486907
-0.437782
-0.445232
-0.484573
-0.486037
-0.439912
-0.44458
0.85454
0.532903
0.387231
0.643132
0.874099
0.53261
0.410519
0.0870618
0.818193
0.103544
-0.432361
-0.379191
-0.435189
-0.38729
-0.442503
-0.419235
-0.389063
-0.443507
-0.445166
-0.422651
-0.394851
-1.13286
-0.226044
-0.596119
-0.262576
-1.14931
-0.230626
-0.600382
-0.841716
-1.05851
-0.876492
-1.09499
-0.949629
-0.61525
-1.00319
-0.60624
-0.399734
-0.498843
-0.42285
-0.403851
-0.402981
-0.497245
-0.424313
-0.382121
-0.222127
-1.10984
-0.143752
-0.328177
-0.259502
-1.07735
-1.03359
-0.856471
-1.0402
-0.610437
-0.962279
-0.621143
-0.43124
-0.515211
-0.503493
-0.497578
-0.429349
-0.51385
-0.517195
0.502581
0.50809
0.759203
0.642091
0.496272
0.525564
0.783023
0.933203
0.160441
0.85381
-0.424604
-0.452009
-0.440507
-0.4551
-0.647546
-0.46022
-0.619401
-0.464127
-0.651308
-0.465424
-0.624868
0.854792
0.924656
1.06853
1.10514
0.863822
0.92706
1.32607
0.963322
-0.458955
-0.467055
-0.580265
-0.466961
-0.526951
-0.484214
-0.576526
-0.476817
-0.524493
1.01863
0.903092
0.981952
0.998632
1.0641
0.86467
1.13682
0.931427
1.2478
-0.436869
-0.440755
-0.485231
-0.442027
-0.444343
-0.487018
-0.485105
-0.444535
-0.442849
0.910763
0.545011
0.409546
0.6631
0.964865
0.515933
0.40777
0.112999
0.783885
0.110071
-0.435859
-0.390824
-0.439859
-0.399741
-0.445547
-0.428424
-0.4002
-0.444935
-0.446435
-0.433324
-0.407694
-1.15416
-0.209627
-0.57526
-0.296583
-1.155
-0.194803
-0.5614
-0.869332
-1.09704
-0.890814
-1.08918
-1.00332
-0.603523
-0.968447
-0.569064
-0.402103
-0.493427
-0.42232
-0.437302
-0.403833
-0.478123
-0.420032
-0.286702
-0.290147
-1.0693
-0.1379
-0.265368
-0.309595
-1.07142
-1.03978
-0.806869
-1.04144
-0.620014
-0.966164
-0.615321
-0.417376
-0.511095
-0.523124
-0.468153
-0.41186
-0.502361
-0.515483
0.507275
0.546086
0.851594
0.68017
0.516285
0.548018
0.835442
0.845002
0.071815
0.804361
-0.444606
-0.456641
-0.440846
-0.457479
-0.645423
-0.471441
-0.616364
-0.477578
-0.643211
-0.475355
-0.614114
0.837368
0.928398
1.33554
1.22257
0.812741
0.925249
1.37184
0.859665
-0.469193
-0.471218
-0.564925
-0.479285
-0.513738
-0.483102
-0.558481
-0.481265
-0.507553
1.12264
0.848969
1.19186
1.00308
1.24233
0.921854
1.24752
1.38434
1.40933
-0.441832
-0.443191
-0.482518
-0.445259
-0.440381
-0.487416
-0.480931
-0.446195
-0.439269
1.00839
0.542444
0.347589
0.683048
1.02529
0.54873
0.368639
0.0784548
0.721786
-0.017685
-0.440518
-0.401788
-0.442666
-0.405908
-0.447054
-0.433225
-0.40617
-0.446499
-0.446908
-0.435232
-0.407552
-1.14166
-0.188106
-0.564681
-0.321341
-1.12613
-0.165281
-0.546408
-0.903745
-1.08901
-0.897001
-1.06768
-0.953165
-0.562841
-0.912288
-0.550713
-0.401246
-0.493648
-0.416743
-0.443162
-0.404898
-0.48526
-0.413397
-0.598937
-0.611316
-0.758969
-0.504286
-0.607344
-0.615792
-0.767988
-0.473102
-0.775166
-0.652292
-0.585013
-0.486905
-0.798495
-0.660654
-1.32667
-0.930909
-0.986009
-0.829865
-0.941101
-0.993303
-1.30462
-1.1206
-0.81895
-1.44857
-0.973777
-0.834016
-1.45847
-1.11525
0.0829516
-0.0586244
0.505246
0.171479
-0.0538538
0.490142
0.0681345
-0.492144
-0.494972
0.940207
-0.496823
-0.466293
-0.486861
-0.474351
-0.467375
-0.486695
-0.497064
-0.486526
-0.51625
-0.468692
-0.484674
-0.516101
-0.468881
-0.485943
0.48394
0.873395
0.443854
-1.71079
-1.31223
-1.32104
-1.6963
-0.333696
-0.295713
-0.394706
-0.36616
-0.299167
-0.401374
-0.327173
-0.8572
-0.512161
-0.593541
-0.588838
-0.862213
-0.525068
-0.605358
-0.643692
-0.496042
-0.539185
-0.897211
-0.662219
-0.509698
-0.50821
-0.605942
-0.608138
-0.762547
-0.492359
-0.610591
-0.614899
-0.753327
-0.500381
-0.822375
-0.611066
-0.597607
-0.510979
-0.836656
-0.625748
-1.39214
-1.01165
-1.05752
-0.871936
-1.40353
-1.02311
-1.05319
-1.13656
-0.859483
-1.47648
-0.963393
-1.14048
-0.86299
-1.46628
0.121058
-0.0327748
0.452926
0.179062
0.113734
-0.0341061
0.441233
-0.503646
-0.504405
0.908471
-0.497265
-0.476957
-0.48746
-0.480968
-0.497838
-0.480165
-0.487833
-0.486292
-0.507641
-0.470675
-0.485301
-0.485203
-0.507083
-0.471688
0.394668
0.779562
0.386045
-1.7125
-1.31487
-1.69461
-1.33119
-0.37269
-0.32231
-0.457915
-0.430703
-0.364959
-0.334045
-0.479063
-0.849598
-0.525151
-0.603361
-0.562028
-0.839061
-0.520207
-0.582404
-0.690673
-0.516391
-0.552852
-0.868495
-0.666882
-0.524084
-0.502249
-0.599581
-0.599824
-0.727229
-0.457359
-0.590076
-0.568608
-0.711915
-0.5105
-0.82745
-0.630592
-0.588195
-0.502248
-0.81673
-0.631285
-1.27025
-1.01936
-0.991557
-0.839293
-1.29439
-1.01558
-0.981954
-1.12128
-0.868097
-1.42825
-0.969208
-1.12358
-0.867575
-1.41826
0.123867
-0.0863408
0.435841
0.109332
0.163858
-0.106739
0.416841
-0.503036
-0.497852
0.950986
-0.492195
-0.484915
-0.487039
-0.4845
-0.495
-0.483478
-0.485905
-0.485357
-0.501571
-0.47451
-0.487846
-0.486309
-0.499065
-0.474833
0.419151
0.76725
0.422975
-1.81819
-1.39765
-1.8001
-1.4078
-0.31917
-0.368898
-0.493338
-0.442278
-0.33411
-0.373488
-0.476561
-0.826554
-0.518986
-0.575944
-0.521361
-0.818795
-0.515475
-0.573296
-0.645337
-0.526259
-0.56319
-0.870176
-0.637947
-0.524371
-0.537277
-0.513293
-0.776719
-0.603538
-1.13331
-0.794139
-0.639952
-0.503303
-0.507193
-1.12858
-0.830074
-0.660291
-0.809063
-0.644224
-0.510261
-1.44857
-0.969706
-1.52169
-0.997615
-0.979404
-1.53208
-1.44708
-1.70815
-1.29343
-1.29215
-1.70744
-1.35235
-0.844417
-0.990261
-1.04336
-0.959163
-1.007
-1.39009
-1.4484
-1.00594
-1.01925
-1.55611
-0.99298
-1.5401
-1.46369
-1.70317
-1.33962
-1.29822
-1.74253
-0.811981
-0.695725
-0.625639
-0.597333
-0.704896
-0.625514
-0.808225
-0.888181
-0.656562
-0.659335
-0.87818
-1.12976
-0.971003
-0.85464
-1.47644
-0.843663
-1.46673
-1.13991
-0.819866
-0.600432
-0.729633
-0.626904
-0.716143
-0.627591
-0.828825
-0.898433
-0.662396
-0.661759
-0.907399
-0.543558
-0.511743
-0.511699
-0.508507
-0.511944
-0.512815
-0.545488
-0.540908
-0.509982
-0.511667
-0.517537
-0.511569
-0.51576
-0.536976
-0.365272
-0.372312
0.662561
0.971244
0.616414
0.116337
0.18505
-0.040368
0.461814
-0.0482431
0.473157
0.110717
-0.412642
-0.386709
0.981441
0.607297
0.607148
-0.471208
-0.467499
-0.463965
-0.420208
-0.469126
-0.463802
-0.469895
-0.449256
-0.451988
-0.449515
-0.502236
-0.499988
-0.473535
-0.421141
-0.471556
-0.462624
-0.470492
-0.463425
-0.476035
-0.450919
-0.449038
-0.448575
0.828788
0.856826
1.00177
0.870382
0.840079
0.989587
0.845786
0.821292
1.00931
0.851396
1.08789
1.00058
0.838438
0.853238
0.836986
0.860093
0.866451
0.98136
0.85959
0.97897
0.854575
0.796827
1.04522
0.965866
0.79343
0.990443
0.819269
0.786945
0.909859
-0.454197
-0.455035
-0.45791
-0.468365
-0.488368
-0.462294
-0.468684
-0.487567
-0.457682
-0.497075
-0.475601
-0.473058
-0.487072
-0.469953
-0.486805
-0.497281
-0.459169
-0.462922
-0.47097
-0.487985
-0.46949
-0.487298
-0.461329
0.787557
0.875249
1.08149
1.0493
0.874632
1.07596
0.795252
0.845112
1.1156
0.895934
0.938442
1.09967
0.874893
0.866308
0.792715
1.0299
0.903493
1.08092
0.889328
1.07409
0.786899
0.840808
0.935571
1.04718
0.896647
1.07301
0.90453
0.828167
0.848868
0.831518
-0.433913
-0.43461
-0.482011
-0.462077
-0.463579
-0.437708
-0.462228
-0.464202
-0.481177
-0.484996
-0.484529
-0.512101
-0.469915
-0.511994
-0.469312
-0.486322
-0.481812
-0.439418
-0.463086
-0.465933
-0.462672
-0.464743
-0.482906
-0.179151
0.243818
-0.179416
0.0701864
0.221678
-0.177649
-0.182268
-0.548482
-0.571474
0.844012
0.406132
0.420773
-0.152364
0.0895512
0.224021
-0.185606
0.220107
-0.178897
-0.135775
-0.595582
-0.591058
-0.408558
-0.433075
-0.409473
-0.328044
-0.332078
-0.397241
-0.40847
-0.36461
-0.381385
-0.409241
-0.366882
-0.396535
-0.433861
-0.412818
-0.41061
-0.342792
-0.337609
-0.398376
-0.384107
-0.410817
-0.371942
-0.410062
-0.369964
-0.399524
-0.683306
-0.666499
-0.897599
-1.13432
-0.701607
-0.909903
-0.666108
-0.674066
-1.13582
-0.701287
-0.902564
-0.703237
-0.905798
-0.668881
-1.27103
-1.05019
-0.958991
-0.862081
-1.06366
-0.979672
-1.24715
-1.43961
-1.48493
-1.10543
-1.0763
-1.50365
-1.11704
-1.42795
-1.71277
-1.316
-1.31997
-1.70111
-1.28926
-0.866433
-1.06843
-0.996767
-1.06303
-0.982503
-1.30791
-1.44111
-1.08329
-1.51758
-1.11067
-1.51475
-1.10965
-1.43441
-1.04056
-0.696217
-0.691422
-1.04986
-1.12347
-1.38698
-0.843391
-0.967358
-1.41113
-0.853514
-1.12051
-0.86015
-0.646181
-0.669332
-0.610841
-0.641094
-0.675289
-0.856092
-1.01899
-0.664072
-0.677297
-0.988819
-1.12526
-0.983483
-1.44134
-0.875263
-1.43415
-0.861959
-1.12425
-0.867252
-0.612561
-0.625449
-0.7013
-0.633655
-0.690976
-0.867844
-0.345815
-0.383457
-0.313938
-0.436284
-0.305804
-0.417702
-0.356217
-0.538352
-0.860369
-0.682691
-1.09667
-0.517684
-0.898052
-0.708506
-0.548315
-1.08472
-0.961888
-0.729877
-0.930363
-0.7194
-0.563514
-1.49106
-1.04732
-1.56613
-1.03942
-1.47903
-1.06532
-1.5693
-1.84532
-1.38357
-1.80417
-1.41178
-1.36279
-0.865363
-1.02328
-1.01096
-1.02538
-1.03366
-1.32711
-1.49831
-1.03992
-1.07895
-1.55835
-1.07431
-1.56567
-1.50092
-1.85949
-1.43574
-1.42654
-1.8562
-0.832739
-0.734302
-0.627608
-0.616971
-0.832802
-0.73845
-0.630051
-0.914447
-0.661845
-0.913806
-0.659661
-1.13097
-0.96006
-0.867286
-1.43917
-0.864823
-1.45251
-1.12598
-0.83087
-0.619562
-0.738167
-0.631909
-0.739427
-0.631708
-0.829404
-0.911158
-0.649581
-0.656177
-0.905349
-0.529323
-0.510605
-0.518253
-0.516554
-0.532917
-0.508121
-0.517695
-0.525688
-0.516425
-0.498819
-0.521543
-0.504034
-0.517917
-0.524714
-0.433613
-0.453095
0.604642
0.895037
0.595743
0.143264
0.172618
-0.0628439
0.438489
-0.0433419
0.438466
0.152542
-0.493111
-0.472656
0.871153
0.597696
0.597931
-0.480682
-0.473164
-0.462407
-0.429246
-0.478503
-0.477057
-0.462895
-0.449693
-0.452792
-0.450537
-0.506239
-0.505292
-0.482424
-0.435986
-0.485341
-0.465806
-0.481857
-0.464589
-0.4831
-0.454097
-0.452567
-0.451652
0.816441
0.83936
0.994095
0.869705
0.839602
0.816249
0.993136
0.79708
0.950592
0.817314
1.13523
0.785733
0.991056
0.833271
0.807812
0.868547
0.776716
0.944857
0.795896
0.974909
0.814641
0.871809
1.22832
1.13116
0.913314
1.07369
0.889276
0.922818
0.924844
-0.461639
-0.464513
-0.467063
-0.47324
-0.489015
-0.470076
-0.464556
-0.475801
-0.490036
-0.497372
-0.48292
-0.484508
-0.487769
-0.483327
-0.488027
-0.495846
-0.470287
-0.473689
-0.480788
-0.491816
-0.478563
-0.491772
-0.471626
0.789152
0.913919
1.09618
1.01919
0.787133
0.918378
1.11819
0.845332
1.04868
0.946047
1.02597
0.833085
1.08785
0.963821
0.798957
1.02985
0.925677
1.17292
0.923031
1.14545
0.817553
0.888594
1.0796
1.27982
1.06162
1.16643
1.01013
0.980979
1.01442
1.11935
-0.438139
-0.439567
-0.482812
-0.463434
-0.466755
-0.442648
-0.482301
-0.463813
-0.467584
-0.486115
-0.486145
-0.503269
-0.473789
-0.504909
-0.472785
-0.486305
-0.482297
-0.444308
-0.464526
-0.467745
-0.46416
-0.467901
-0.4823
-0.0909735
0.221466
-0.187853
0.112384
-0.106871
0.211779
-0.189765
-0.58732
-0.583508
0.78342
0.407791
0.395022
-0.0693878
0.0973756
0.216166
-0.199278
0.209117
-0.194048
-0.0625166
-0.57982
-0.574967
-0.414571
-0.437533
-0.417042
-0.346772
-0.347384
-0.401787
-0.41141
-0.372863
-0.394488
-0.400654
-0.412588
-0.372852
-0.438269
-0.421344
-0.419074
-0.353643
-0.350591
-0.402927
-0.396551
-0.414161
-0.375193
-0.412682
-0.373463
-0.404147
-0.673225
-0.69904
-0.896787
-1.16293
-0.667499
-0.717149
-0.895717
-0.679619
-1.1609
-0.777931
-0.902187
-0.751098
-0.897514
-0.684617
-1.33218
-1.07092
-1.00301
-0.86894
-1.3199
-1.07723
-1.0137
-1.4258
-1.51834
-1.10275
-1.09641
-1.42457
-1.52712
-1.10296
-1.73766
-1.37457
-1.35161
-1.76876
-1.34444
-0.878114
-1.1011
-1.038
-1.08707
-1.02687
-1.35461
-1.43438
-1.09415
-1.53659
-1.11384
-1.53202
-1.10764
-1.44557
-0.919027
-0.652816
-0.955875
-0.641279
-1.11337
-1.43881
-0.878463
-0.999813
-1.11708
-1.43644
-0.881933
-0.829029
-0.61524
-0.718667
-0.591336
-0.853308
-0.599637
-0.710974
-0.880978
-0.57747
-0.617146
-0.841853
-1.10785
-0.983147
-1.43042
-0.875636
-1.43341
-0.879799
-1.10471
-0.80266
-0.582004
-0.564725
-0.711698
-0.581787
-0.716428
-0.777807
-0.369456
-0.434716
-0.361368
-0.499646
-0.347881
-0.494363
-0.352991
-0.583452
-0.97986
-0.737641
-1.06612
-0.573336
-0.994161
-0.73637
-0.596646
-1.07058
-1.01225
-0.684242
-1.00961
-0.727027
-0.583972
-1.49639
-1.07969
-1.55065
-1.04252
-1.50069
-1.08492
-1.54202
-1.83914
-1.44098
-1.84994
-1.43914
-1.25546
-0.825704
-1.00359
-0.952955
-1.01265
-0.978554
-1.24084
-1.4882
-1.04818
-1.09138
-1.52123
-1.09481
-1.53244
-1.47615
-1.82389
-1.40435
-1.42748
-1.80324
-0.827543
-0.730946
-0.63368
-0.619733
-0.828441
-0.726103
-0.633341
-0.887362
-0.639021
-0.896868
-0.627395
-1.1197
-0.971958
-0.863515
-1.40038
-0.869073
-1.40992
-1.11672
-0.825773
-0.618823
-0.719131
-0.633906
-0.72252
-0.635322
-0.825806
-0.879986
-0.611999
-0.617794
-0.874805
-0.512735
-0.49315
-0.515075
-0.506498
-0.517807
-0.486165
-0.510678
-0.498091
-0.503561
-0.476043
-0.496957
-0.479711
-0.499469
-0.492744
-0.50537
-0.53634
0.600204
0.825186
0.602223
0.0831627
0.0818989
-0.12976
0.421086
-0.121847
0.418947
0.0741029
-0.576405
-0.558552
0.805784
0.632759
0.614354
-0.482939
-0.48756
-0.467202
-0.443089
-0.483402
-0.486067
-0.467628
-0.453588
-0.456495
-0.453528
-0.489479
-0.492564
-0.482094
-0.44348
-0.484635
-0.467525
-0.4865
-0.467904
-0.481447
-0.458692
-0.454382
-0.455328
0.881499
0.792956
0.923136
0.825864
0.864355
0.805031
0.899843
0.947234
1.10546
0.881853
1.31617
0.930307
1.08265
0.855302
0.865362
0.768527
0.839956
0.915084
0.815813
0.892781
0.89068
0.956243
1.32293
1.08779
0.852411
1.07615
0.841803
0.973375
0.924318
-0.470453
-0.471208
-0.472927
-0.482406
-0.492063
-0.480675
-0.473385
-0.483326
-0.490258
-0.490769
-0.483773
-0.479533
-0.483713
-0.481749
-0.484597
-0.488956
-0.473498
-0.481207
-0.483852
-0.487975
-0.48377
-0.489361
-0.472765
0.831337
0.950529
1.1895
1.17833
0.833208
0.996291
1.20954
1.14752
1.40658
1.10243
1.24189
1.08836
1.44893
1.12236
0.90877
1.21904
1.11991
1.24905
1.07701
1.23828
0.960762
1.18469
1.24781
1.40915
1.07728
1.39971
1.09445
1.18536
1.51195
1.50425
-0.442579
-0.443021
-0.48182
-0.464784
-0.467713
-0.445569
-0.482954
-0.464926
-0.466716
-0.484992
-0.487672
-0.495828
-0.474684
-0.497332
-0.474807
-0.484292
-0.482099
-0.445907
-0.465124
-0.46619
-0.464992
-0.466806
-0.481187
-0.0984646
0.204145
-0.211798
0.0353112
-0.0650404
0.167589
-0.227299
-0.57812
-0.590916
0.68239
0.510245
0.434058
-0.177981
-0.0101482
0.185208
-0.258502
0.166212
-0.250255
-0.184625
-0.633954
-0.620089
-0.423178
-0.441742
-0.424756
-0.355486
-0.356369
-0.405383
-0.414619
-0.37732
-0.403761
-0.404768
-0.415659
-0.378897
-0.442477
-0.426495
-0.425934
-0.357665
-0.357009
-0.40574
-0.405321
-0.41615
-0.38148
-0.415938
-0.380823
-0.405917
-0.711579
-0.813484
-0.914862
-1.123
-0.69685
-0.834752
-0.926687
-0.730597
-1.12536
-0.760337
-0.931969
-0.834345
-0.938646
-0.706942
-1.35505
-1.11199
-1.0526
-0.912754
-1.35847
-1.12174
-1.05773
-1.46475
-1.53906
-1.12981
-1.08004
-1.45788
-1.53452
-1.13463
-1.82286
-1.38866
-1.40671
-1.80645
-1.34893
-0.910998
-1.10433
-1.05731
-1.13227
-1.06482
-1.33576
-1.46507
-1.07975
-1.50892
-1.14354
-1.5248
-1.14909
-1.45542
-0.78828
-0.529725
-0.811108
-0.494821
-1.08365
-1.42678
-0.869806
-0.934236
-1.09688
-1.41452
-0.860045
-0.736757
-0.549954
-0.710069
-0.558102
-0.755955
-0.550532
-0.706102
-0.773495
-0.471298
-0.476922
-0.762832
-1.07283
-0.927007
-1.37971
-0.843916
-1.39815
-0.855721
-1.06513
-0.726293
-0.554203
-0.549905
-0.705746
-0.548565
-0.712561
-0.723456
-0.314792
-0.442997
-0.37394
-0.464481
-0.372852
-0.468052
-0.315193
)
;

boundaryField
{
    inlet
    {
        type            zeroGradient;
    }
    outlet
    {
        type            fixedValue;
        value           uniform 0;
    }
    up
    {
        type            zeroGradient;
    }
    down
    {
        type            zeroGradient;
    }
    frontAndBack
    {
        type            zeroGradient;
    }
    cylinder
    {
        type            zeroGradient;
    }
}


// ************************************************************************* //
