/*--------------------------------*- C++ -*----------------------------------*\
  =========                 |
  \\      /  F ield         | OpenFOAM: The Open Source CFD Toolbox
   \\    /   O peration     | Website:  https://openfoam.org
    \\  /    A nd           | Version:  8
     \\/     M anipulation  |
\*---------------------------------------------------------------------------*/
FoamFile
{
    version     2.0;
    format      ascii;
    class       volVectorField;
    location    "96";
    object      U;
}
// * * * * * * * * * * * * * * * * * * * * * * * * * * * * * * * * * * * * * //

dimensions      [0 1 -1 0 0 0 0];

internalField   nonuniform List<vector> 
2844
(
(0.982481 0.000864301 0.000212473)
(1.02221 -0.0148166 -0.000531389)
(1.02817 -0.00766928 0.000192252)
(1.067 -0.0159347 0.000124347)
(1.08617 -0.0155654 0.000269899)
(1.08538 -0.0045494 3.11456e-05)
(1.08238 -0.0158767 -0.000343656)
(1.07921 -0.0172277 -7.12195e-06)
(1.0677 -0.0197104 -2.62708e-05)
(1.05277 -0.0131851 4.21341e-05)
(1.02748 -0.0128299 0.000160855)
(1.00587 -0.0107715 -9.85605e-05)
(0.985233 0.000133717 0.000128185)
(0.926576 -0.00574322 -4.23291e-05)
(0.907955 -0.000533236 -8.37925e-05)
(0.836048 -0.00540982 7.60024e-05)
(0.823048 -0.0171712 -0.000707269)
(0.846762 -0.01937 -0.0012461)
(0.898219 -0.0442175 -0.00219819)
(1.00868 -0.0325801 -0.00125204)
(0.973862 -0.0102148 0.000269327)
(1.03264 -0.0133696 -0.000646687)
(1.03321 -0.0322158 0.000335102)
(1.05477 -0.0265775 0.00030924)
(1.1126 -0.00035266 0.000859881)
(1.10058 0.0145825 0.000177805)
(1.08024 0.024285 -0.000486686)
(1.09197 0.0304513 -0.000347341)
(1.08711 0.0370581 -0.000346261)
(1.05873 0.0484269 0.000209197)
(1.03398 0.0517572 -8.51413e-05)
(1.03437 0.0443139 -0.000272302)
(0.996207 0.0651529 0.000203752)
(0.931481 0.0685962 4.04458e-05)
(0.920238 0.0725864 5.20091e-05)
(0.824707 0.0736703 5.3753e-05)
(0.81525 0.01452 -0.00296952)
(0.834579 -0.0223119 -0.00425858)
(0.899342 -0.0685325 -0.00590057)
(1.02725 -0.0399075 -0.00313832)
(1.00387 -0.0104234 -0.000266727)
(1.04244 -0.0598914 -0.00120322)
(1.01492 -0.0388714 0.00270882)
(1.09878 -0.081504 0.00192524)
(1.16095 -0.0673932 0.000240178)
(1.13426 0.0247623 0.000718025)
(1.118 -0.00838025 -0.0020471)
(1.12883 -0.015552 -0.00198487)
(1.0972 -0.00419054 0.0010032)
(1.07325 0.0305845 0.00122956)
(1.06825 0.00440544 0.00241221)
(1.03093 0.0157037 0.00174022)
(1.00378 0.0776625 0.00173499)
(0.964309 0.0542808 -0.00152234)
(0.929473 0.0806231 0.000877798)
(0.818629 0.080512 -0.000199798)
(0.795624 0.0113551 -0.0093064)
(0.805918 -0.0415491 -0.00794261)
(0.899323 -0.151325 -0.00665394)
(1.04393 -0.0967599 -0.00497288)
(1.00685 -0.0517136 -0.00162955)
(1.00549 0.00865014 -0.00199825)
(1.09107 -0.107074 0.00472626)
(1.12927 -0.140634 0.00739738)
(1.16338 -0.0151551 0.00158547)
(1.19747 0.0564483 -0.00705964)
(1.17361 0.0463972 -0.00718817)
(1.15829 0.0801066 -0.00261678)
(1.07481 0.0616469 -0.00422277)
(1.15717 0.0818766 0.00339573)
(1.16312 0.072093 0.00758761)
(1.07324 0.082755 0.00416239)
(1.11297 0.116836 -0.00346178)
(1.04979 0.153148 0.00505449)
(0.886284 0.178532 0.0126591)
(0.72783 0.18912 -0.0144497)
(0.763352 0.110797 -0.0162535)
(0.687015 -0.0304432 0.00308647)
(0.735104 -0.223547 0.00782072)
(1.01403 -0.0974522 0.00113055)
(0.976272 -0.015483 -0.00777232)
(1.08141 -0.111507 0.00544287)
(1.19561 -0.213985 0.0167099)
(1.26239 -0.201111 0.0168219)
(1.25522 -0.151751 0.00244729)
(1.25939 0.078219 -0.00407112)
(1.24219 0.0643891 0.00573261)
(1.14812 0.109614 -0.00697823)
(1.14357 0.00100915 -0.0169462)
(1.27032 -0.0562329 -0.0145198)
(1.2632 -0.0100609 0.0065644)
(1.2823 0.0394292 0.0266809)
(1.05083 0.126049 0.0252029)
(0.884353 0.169775 -0.00142597)
(1.06373 0.202458 -0.0227072)
(1.01586 0.306348 -0.00327811)
(0.768251 0.198941 0.0309539)
(0.470891 -0.0683394 0.0339076)
(0.437733 -0.546894 0.0133093)
(0.864137 -0.32156 0.00170984)
(0.978923 -0.0588852 -0.00728324)
(1.09438 -0.1467 8.98149e-06)
(1.16765 -0.373903 0.0230415)
(1.39261 -0.319466 0.0370296)
(1.51131 -0.0276202 0.0132236)
(1.3369 0.123 -0.0296518)
(1.39981 0.0952965 0.00570332)
(1.19111 0.275106 -0.00934333)
(1.15547 0.0554009 0.00200352)
(1.41936 0.181597 0.0209481)
(1.37605 0.0474266 -0.00211571)
(1.32541 -0.0447801 -0.0300536)
(1.49659 0.22817 -0.00082594)
(1.38186 0.242316 0.0246293)
(1.21292 0.337948 0.0232501)
(0.834598 0.477237 0.0175534)
(0.634763 0.240684 0.0240066)
(0.452796 -0.121728 0.0319096)
(0.250124 -0.724426 0.00296306)
(0.586556 -0.469399 -0.0152094)
(1.09156 -0.0398763 0.0021167)
(1.09883 -0.25911 0.00932454)
(1.29199 -0.633324 0.0203904)
(1.33524 -0.638676 0.00361329)
(1.86542 -0.760766 0.0357124)
(1.41535 0.325259 0.0234878)
(1.25116 0.0541256 -0.0748582)
(1.8055 0.426093 -0.00293359)
(1.30815 -0.181657 0.0659154)
(1.15442 -0.269109 -0.00388785)
(1.74621 0.024161 -0.054278)
(1.81275 0.177324 0.0011432)
(1.36163 0.162681 0.00206653)
(1.16241 0.162119 0.0306633)
(1.08436 0.337528 0.0421536)
(0.903001 0.53205 -0.0364476)
(1.04255 0.366211 -0.0238693)
(0.861734 -0.00696737 0.0171216)
(0.648699 -0.688616 0.0156708)
(0.554926 -0.530657 -0.000529416)
(1.32762 -0.14619 0.012345)
(1.06901 -0.445152 0.0236997)
(1.3217 -0.957366 0.0411954)
(1.65995 -0.867772 -0.0294565)
(1.92392 -0.00416533 -0.0307827)
(1.32464 0.150344 -0.0210983)
(1.30312 0.199361 0.0558491)
(1.39732 0.286317 0.0163239)
(0.587805 -0.00155707 -0.0660677)
(1.14882 -0.186326 -0.0098916)
(1.39394 -0.114721 0.0214058)
(1.45289 0.244724 0.0108626)
(1.5884 0.739757 0.00126615)
(1.26162 0.281745 0.0110722)
(1.08627 0.239191 -0.0811016)
(1.15791 0.911402 -0.0550604)
(1.38397 0.580183 0.0398809)
(1.2107 0.118885 0.0209941)
(1.1247 -0.584571 -0.020112)
(0.898482 -0.489665 -2.35205e-05)
(1.6126 -0.278579 -0.0022936)
(1.18394 -0.746274 -0.00293635)
(0.89592 -1.67643 -0.0186467)
(-0.149023 -0.384354 0.00402332)
(0.769295 1.01077 -0.0475923)
(-0.215193 0.134018 0.0310999)
(0.367435 -0.858999 0.0590607)
(0.268029 -0.139298 -0.0440386)
(0.648096 -0.118442 -0.0581656)
(1.47064 0.166444 0.0304304)
(1.43341 0.297065 -0.00436046)
(1.15752 0.792584 -0.03215)
(1.03163 0.724586 0.0667208)
(0.959505 -0.0301277 0.0244862)
(0.987973 -0.0875035 -0.104279)
(1.23013 -0.448807 -0.144768)
(1.10989 -0.472246 -0.0399379)
(1.54577 -0.183745 0.0025625)
(0.199019 -0.657115 0.0678609)
(-0.131172 0.335647 -0.175926)
(-0.0953235 0.0793611 0.0129652)
(-0.12348 0.280055 0.0299896)
(-0.28466 -0.203322 0.0107998)
(0.0520083 -1.08316 -0.0744141)
(0.243796 0.0770684 -0.0279294)
(0.301866 -0.188538 0.00909055)
(0.836154 0.213774 0.0367843)
(1.13341 0.680139 -0.019683)
(1.27083 0.845996 0.0542925)
(1.16348 0.568504 0.0382772)
(0.933582 0.18898 -0.0502325)
(0.958881 0.309429 -0.0646885)
(1.30454 0.158607 -0.0502035)
(1.35617 -0.155053 -0.0184699)
(1.03399 0.230738 0.0193878)
(-0.829764 -0.060753 -0.0972756)
(0.018533 0.285683 0.00130673)
(-0.335542 0.61113 0.0305475)
(0.380976 -0.233973 -0.0343607)
(0.189796 -0.641963 -0.101716)
(0.460344 -0.0660577 0.0415186)
(0.0122952 -0.54263 0.0931193)
(0.390876 -0.535887 -0.00210151)
(0.948003 0.13008 0.0243251)
(1.1603 0.401923 0.0589513)
(1.08665 0.666716 -0.0156361)
(0.742765 0.371795 -0.0178753)
(0.782575 0.00212702 0.0179749)
(0.853006 -0.456088 0.0170378)
(0.925948 -0.406716 -0.00625465)
(1.34435 0.298064 -0.0271145)
(1.83045 0.0640581 0.0447538)
(0.394228 0.793111 -0.136092)
(0.146087 0.102375 0.000158639)
(0.378048 0.135885 0.0467944)
(0.739331 -0.381376 0.0188967)
(0.925635 -0.628647 -0.10632)
(1.10394 -0.438914 0.00314693)
(0.783784 -0.414686 0.0887645)
(0.231692 -0.324442 -0.00768433)
(0.574182 -0.073469 0.00698461)
(0.716334 0.379777 0.0205915)
(0.860005 0.963608 0.00369279)
(1.02113 0.550753 -2.19343e-05)
(1.15805 0.197949 0.00563344)
(1.02578 -0.0922069 0.00246121)
(0.984024 -0.205328 -0.00486284)
(1.17635 0.240174 0.0219267)
(0.944079 0.464945 0.0595259)
(0.863815 1.09551 -0.0574)
(0.494466 -0.211529 0.03814)
(1.4126 -0.146485 0.0123284)
(1.13453 -0.051049 -0.00162003)
(1.77436 -0.733472 -0.028575)
(1.56119 -0.611925 0.00521187)
(1.09644 -0.176177 -0.0466215)
(1.9907 -0.476743 -0.00868214)
(1.70153 -0.278543 0.046281)
(1.02109 -0.137647 0.0197403)
(0.769088 0.112067 0.00355037)
(0.69693 0.574231 -0.000769457)
(1.17652 0.175457 -0.00680477)
(1.40915 0.030248 -0.0252634)
(1.61873 -0.294423 0.00146036)
(1.38538 -0.382737 0.0150274)
(0.989494 0.103059 0.00594729)
(0.996936 0.349431 0.00605816)
(1.3104 0.548332 0.0172116)
(1.6728 0.809951 0.0248302)
(2.03139 0.222113 0.0774367)
(1.50628 -0.136654 -0.107199)
(1.6858 -0.0544428 -0.0495742)
(1.63471 -0.240064 0.0459395)
(1.36185 -0.316717 -0.00413896)
(1.17099 -0.381862 -0.0285612)
(1.10699 -0.386216 0.000913063)
(1.01326 -0.422504 0.00425509)
(0.927336 0.122749 0.0246351)
(0.878639 0.424618 0.019597)
(0.724036 0.601908 -0.00111084)
(0.948778 0.631959 -0.00307062)
(1.26804 0.00582306 0.00326031)
(1.25203 -0.026495 -0.0107977)
(1.46122 -0.0570684 -0.0218002)
(1.26974 -0.135999 -0.00674398)
(1.0004 0.135601 -0.00218172)
(0.997451 0.103696 -0.00482809)
(1.28463 0.336218 0.0254592)
(1.50225 0.126056 0.0632384)
(1.35964 -0.0142939 -0.0411715)
(1.50174 0.0280329 -0.029063)
(1.44107 -0.102136 0.0332725)
(1.27181 -0.251906 -0.00676244)
(1.29931 -0.287909 -0.0120826)
(1.23303 -0.171949 0.00306823)
(1.04356 -0.165776 0.00647934)
(0.807579 -0.349808 -0.0034861)
(0.626157 -0.125291 -0.00936625)
(0.815357 0.0899955 -0.0126275)
(0.926914 0.215483 -0.0111231)
(1.29078 0.233582 -0.0107293)
(1.57932 -0.0386791 -0.00807234)
(1.39178 -0.020431 0.0163653)
(1.30882 -0.111136 0.0047966)
(1.28376 -0.178449 -0.00822309)
(1.02793 0.106252 -0.00530383)
(1.0763 0.0787746 0.00391726)
(1.05697 0.0288577 0.0135289)
(1.30784 0.20459 -0.0223729)
(1.40011 0.166003 0.0069863)
(1.22756 0.00751638 0.0204078)
(1.17215 -0.16986 0.00137599)
(1.19714 -0.120731 -0.0168804)
(1.18146 -0.104844 -0.0113566)
(1.07267 -0.194108 0.00247004)
(1.12399 -0.102672 0.0025969)
(0.982134 -0.115345 0.00176496)
(0.888239 0.11802 -0.000630858)
(0.96927 0.248654 0.00140424)
(0.998255 0.283694 -0.000842317)
(1.20446 0.162031 0.0097505)
(1.17549 0.00896733 0.00561421)
(1.25692 0.0632861 0.00429257)
(1.09809 -0.0419842 0.0202651)
(0.886839 -0.048894 0.0115502)
(1.01289 0.0814748 -0.00058061)
(1.07477 0.0501012 0.000804639)
(1.05562 0.041683 -0.00466879)
(1.12718 0.114824 0.00423751)
(1.19043 0.0228328 0.00745187)
(1.23404 -0.00160916 0.00165769)
(1.18482 -0.0652235 -0.0036273)
(1.11892 -0.079339 -0.00322017)
(1.1284 -0.0715345 0.00418719)
(1.01394 -0.145504 0.00197016)
(0.975355 -0.0788114 0.000811191)
(0.90394 -0.136304 0.00168526)
(0.83656 -0.0836262 0.000731282)
(0.949893 0.0506399 0.000390185)
(1.00289 0.0809611 0.0022354)
(1.12938 0.00396464 0.00237584)
(1.06716 -0.104691 0.00383812)
(1.05449 0.00603247 0.00206296)
(1.098 -0.02377 -0.00200482)
(1.04412 -0.0910437 0.000230183)
(0.98659 0.0446122 0.00115416)
(1.06771 0.0219651 -0.00118154)
(1.04399 0.0306704 -0.00136228)
(1.09981 0.0593675 0.00446371)
(1.11315 0.00934914 0.00183471)
(1.12846 0.0179867 1.89191e-05)
(1.13302 -0.0469708 -0.000999767)
(1.07826 -0.0280422 -0.000724991)
(1.07696 -0.0452423 0.00146534)
(1.01123 -0.103485 0.000446781)
(0.97893 -0.045734 0.00112537)
(0.961681 -0.0191665 0.000434213)
(0.902081 0.0558692 -0.000947373)
(0.929408 0.0872662 0.00115289)
(0.969164 0.109819 0.00267792)
(1.03398 0.0967358 0.00196416)
(0.978282 0.0404889 -0.000843728)
(0.9874 0.0289367 0.000251107)
(1.0148 -0.0168077 0.001378)
(0.970717 -0.00447068 0.000249554)
(0.989538 0.0212282 0.000592045)
(1.04858 0.0191339 -0.000441535)
(1.01739 0.0169371 -0.000199148)
(1.08182 0.0311445 0.00118173)
(1.0687 0.00186271 -0.000558935)
(1.09201 -0.00634659 0.000636957)
(1.09285 -0.0280972 -0.00110148)
(1.04135 -0.0189963 0.00069638)
(1.06188 -0.0308507 0.000281536)
(0.987993 -0.0644612 -0.000745776)
(0.943546 -0.0435168 0.000900125)
(0.909248 -0.0654373 0.000271209)
(0.893236 -0.0409442 -0.000288264)
(0.933548 -0.00779048 0.000577171)
(0.932705 -0.010031 0.000329154)
(1.00187 -0.0218528 -0.000261448)
(0.992343 -0.0487516 0.00062984)
(0.999164 -0.0150824 0.000642633)
(0.990942 -0.0352971 -9.65522e-05)
(0.950291 -0.0510752 0.000172409)
(0.989115 0.00671088 0.000182377)
(1.03842 0.00281087 -0.000127278)
(1.01967 0.00507475 -0.000158623)
(1.06471 0.0088849 0.00045507)
(1.06682 0.00407209 -0.000473513)
(1.07799 0.0039702 0.000371308)
(1.07172 -0.0028924 -0.000245693)
(1.03497 -0.0053736 0.000266125)
(1.04285 -0.00343682 0.000143765)
(0.989128 -0.00624763 -0.000162285)
(0.958401 0.0016574 0.000437174)
(0.929405 0.0184029 -4.06408e-07)
(0.90382 0.0374179 -8.45202e-05)
(0.930598 0.0400567 0.000365103)
(0.934382 0.0490945 0.00016965)
(0.981702 0.0478946 -6.99353e-05)
(0.966138 0.0382403 0.00015034)
(0.970989 0.0260233 0.000292529)
(0.980633 0.0201182 -2.30923e-05)
(0.947405 0.0246922 6.50848e-05)
(0.982266 0.000976083 0.000461626)
(1.02225 -0.0149341 -0.00110224)
(1.02868 -0.00795665 0.00039314)
(1.06674 -0.0152619 0.00020207)
(1.08613 -0.0155232 0.000513737)
(1.08534 -0.00481755 2.82064e-05)
(1.08245 -0.0155084 -0.000765855)
(1.07934 -0.0175752 -5.98333e-05)
(1.06752 -0.0197432 -8.34797e-05)
(1.05286 -0.0131826 4.15821e-05)
(1.02765 -0.0130766 0.000302788)
(1.00589 -0.0106999 -0.00024377)
(0.985166 4.81611e-05 0.000238207)
(0.926531 -0.00565482 -0.000205125)
(0.908008 -0.000435507 -0.00020134)
(0.835822 -0.00509628 0.000274365)
(0.822712 -0.0177912 -0.00189267)
(0.846135 -0.020729 -0.00311773)
(0.898094 -0.0465033 -0.00564857)
(1.00918 -0.0337246 -0.00331685)
(0.973669 -0.00823751 0.000583058)
(1.03185 -0.0185775 -0.00124883)
(1.03562 -0.0298931 0.000608745)
(1.05425 -0.0256978 0.000382442)
(1.11046 0.00184526 0.00165689)
(1.10025 0.0149564 0.000217722)
(1.08141 0.0205055 -0.00111095)
(1.09262 0.0309174 -0.000819218)
(1.08628 0.0369484 -0.0007209)
(1.05864 0.0485137 0.000286515)
(1.03523 0.0535868 -0.000251486)
(1.03379 0.0436056 -0.000838211)
(0.996144 0.0664094 0.00064144)
(0.932254 0.0681912 0.000276351)
(0.921027 0.0717798 0.00056592)
(0.824913 0.0744339 -0.000133867)
(0.813143 0.00929083 -0.00803695)
(0.829881 -0.0319418 -0.00951934)
(0.896652 -0.0865796 -0.0134261)
(1.0282 -0.0499238 -0.0079929)
(1.00365 -0.0070155 -0.000284536)
(1.03812 -0.0681807 -0.00246193)
(1.02163 -0.0359632 0.00531389)
(1.099 -0.0741365 0.00354521)
(1.15361 -0.059271 -0.00072991)
(1.1328 0.0234757 0.000661736)
(1.12149 -0.0125975 -0.00531276)
(1.13289 -0.0172994 -0.00496915)
(1.09579 -0.00664847 0.00124489)
(1.072 0.0306552 0.00125533)
(1.06688 0.00364295 0.00376806)
(1.02958 0.0146952 0.00368366)
(1.00499 0.0777728 0.00211661)
(0.961462 0.0546354 -0.00640238)
(0.923816 0.0815117 0.00101928)
(0.807471 0.0844146 -0.00212066)
(0.78022 -0.0106565 -0.0200055)
(0.778192 -0.0804546 -0.0127544)
(0.870382 -0.212939 -0.00840953)
(1.04043 -0.128609 -0.0100606)
(1.00511 -0.0486405 -0.00224329)
(1.01065 -0.0119137 -0.00461472)
(1.08842 -0.084037 0.00873233)
(1.11659 -0.111682 0.0146119)
(1.16221 -0.00964298 0.00110117)
(1.19798 0.0549513 -0.0132178)
(1.17643 0.0197755 -0.0133177)
(1.1761 0.0660315 -0.00716702)
(1.07656 0.07577 -0.00947393)
(1.13889 0.0935257 0.00795546)
(1.15593 0.0968735 0.0133438)
(1.05989 0.0969622 -0.00152051)
(1.08463 0.136046 -0.00943139)
(1.02805 0.144968 0.0206437)
(0.963627 0.190277 0.0282162)
(0.772662 0.197814 -0.0349395)
(0.719554 0.0365223 -0.0282381)
(0.639055 -0.0979709 0.0123609)
(0.685567 -0.326135 0.0291706)
(0.994769 -0.176435 0.00573584)
(0.972087 -0.0300841 -0.00828207)
(1.10513 -0.136714 0.00246852)
(1.19495 -0.152187 0.0209484)
(1.23993 -0.127561 0.0451695)
(1.26125 -0.134787 0.00755783)
(1.26058 0.0172219 -0.0114332)
(1.2545 -0.0114654 0.00209037)
(1.20393 0.0887985 -0.0149828)
(1.19153 -0.0099088 -0.0306602)
(1.21443 -0.019722 -0.0371948)
(1.16616 0.0501508 0.00122693)
(1.23687 0.0879008 0.0647111)
(1.119 0.10012 0.046145)
(0.964356 0.140475 -0.0295875)
(0.971613 0.278986 -0.0711213)
(0.802061 0.285513 -0.00659635)
(0.684814 0.112119 0.0705497)
(0.497148 -0.0584726 0.0705053)
(0.440172 -0.559701 0.0450248)
(0.824263 -0.377594 0.0103505)
(0.998145 -0.137588 -0.00743136)
(1.11609 -0.108392 -0.00215053)
(1.14976 -0.178602 -0.00156687)
(1.41551 -0.160404 0.0594894)
(1.55553 -0.0198886 0.0758604)
(1.3264 0.0844386 -0.0156448)
(1.42106 0.0985814 0.0172088)
(1.36663 0.195009 -0.00726609)
(1.20125 0.024095 -0.0269723)
(1.35658 0.188687 0.00432503)
(1.41507 0.133201 0.00686966)
(1.20608 0.112582 -0.0548284)
(1.18017 0.373784 -0.0172775)
(1.14619 0.316984 0.0499761)
(1.18336 0.367947 0.0606428)
(0.915669 0.447583 0.0450004)
(0.697028 0.28835 0.0195608)
(0.58379 0.0819958 0.0444906)
(0.41455 -0.602883 0.0168746)
(0.596966 -0.501611 -0.0184072)
(1.07143 -0.147066 -0.0298773)
(1.14458 -0.213926 0.0569799)
(1.29182 -0.399423 -0.00737555)
(1.65922 -0.459837 -0.0521352)
(1.73258 -0.364853 0.0153536)
(1.66915 0.019834 0.0529577)
(1.59272 -0.0313485 -0.0684227)
(1.49953 0.347855 0.000608758)
(1.27467 -0.000747132 0.0958362)
(1.48411 -0.0433007 0.0354176)
(1.69311 0.110073 -0.0575026)
(1.62163 0.267146 -0.018073)
(1.39898 0.279961 0.00186686)
(1.12439 0.197765 0.0389694)
(1.19838 0.390447 0.0530192)
(1.13567 0.581275 -0.0710679)
(1.05054 0.435837 -0.0702312)
(0.957132 0.247866 0.0172773)
(0.807882 -0.47278 0.0449864)
(0.628278 -0.571549 0.0159439)
(1.11976 -0.24923 -0.0122499)
(0.974785 -0.317626 0.080893)
(1.6847 -0.765498 -0.0819385)
(1.98597 -0.826992 -0.271589)
(1.99777 -0.0841448 -0.0851725)
(1.42169 0.100656 -0.00907549)
(1.26406 0.0498788 0.0741873)
(1.65121 0.514127 0.0198221)
(1.01096 0.191887 -0.0223985)
(1.35511 -0.0606175 -0.000442499)
(1.47155 -0.030397 -0.0375345)
(1.48615 0.314071 0.0189974)
(1.70506 0.716883 0.0691293)
(1.54358 0.454974 0.0697167)
(1.32245 0.403076 -0.0652636)
(1.07147 0.664184 -0.104219)
(1.22262 0.46823 0.0450698)
(1.28183 0.376146 0.0830812)
(1.23569 -0.188565 0.0164349)
(0.964175 -0.395818 0.0176442)
(1.18621 -0.127555 0.0872576)
(0.798309 -1.15331 0.0101672)
(1.75794 -0.947106 -0.164786)
(-0.0747502 -0.341304 0.0639693)
(0.538188 0.701005 -0.0828303)
(-0.357722 -0.0080205 0.117254)
(0.608419 -0.453146 0.131784)
(0.497753 0.0664228 -0.106235)
(0.574482 -0.0690842 -0.13252)
(1.41116 0.0374497 -0.0451066)
(1.60797 0.344503 -0.0563162)
(1.18767 0.618395 -0.0561586)
(1.00096 0.587937 0.10138)
(1.18842 0.243842 0.121422)
(1.30463 0.34186 -0.0248253)
(1.2251 -0.195753 -0.136069)
(1.03668 -0.399996 -0.0410878)
(0.863716 -0.134698 -0.0507819)
(0.23935 -0.815309 0.244865)
(0.081344 0.0671478 -0.417696)
(-0.0607817 0.104864 0.0987085)
(-0.212262 0.397638 0.0364055)
(-0.209708 -0.22822 0.049762)
(-0.0627405 -0.642871 -0.144744)
(0.00834736 0.0531288 -0.0726707)
(0.0833906 -0.399619 -0.0390764)
(0.867943 0.181708 -0.0210574)
(1.08642 0.647999 -0.0492499)
(1.18729 0.731734 0.0574097)
(1.40237 0.664245 0.0726159)
(1.09026 0.293081 -0.0392912)
(1.06547 0.188285 -0.0679134)
(1.25006 -0.220548 -0.0532381)
(1.21147 -0.308024 -0.0211396)
(0.871385 0.112508 0.0711557)
(0.303195 -0.147494 -0.159201)
(-0.0241332 0.283464 0.0258975)
(-0.190757 0.537547 0.0082448)
(0.676895 -0.267392 -0.0304109)
(-0.128402 -0.570852 -0.0613029)
(0.124445 -0.187826 0.163104)
(0.0270275 -0.812305 0.027483)
(0.452164 -0.477018 -0.077403)
(0.873441 0.110259 0.0263893)
(1.31008 0.387824 0.0665739)
(1.28221 0.670334 -0.0263356)
(0.847805 0.410768 -0.0356693)
(0.941658 0.043892 -0.00155971)
(0.942496 -0.426694 0.0180827)
(0.876767 -0.38526 -0.00252058)
(1.43835 0.0128953 -0.10447)
(0.587843 0.227538 0.115158)
(0.724407 0.898574 -0.348023)
(0.0651663 0.204956 -0.0285761)
(0.32572 0.0279041 0.0625931)
(1.07911 -0.457071 0.037326)
(0.731463 -0.451069 -0.0461997)
(0.695172 -0.160691 0.0555533)
(1.01824 -0.40725 0.112008)
(0.311216 -0.355408 -0.0438867)
(0.571504 0.0378083 -0.0275599)
(0.731858 0.498704 0.00242145)
(0.790438 0.941685 -0.016474)
(0.963128 0.519159 -0.0155656)
(1.04948 0.242195 -0.00199925)
(1.10705 -0.118604 0.00705061)
(1.13769 -0.257819 0.00290888)
(0.973935 0.156542 0.022147)
(1.05805 0.645867 0.0342015)
(0.886947 0.109464 -0.0822204)
(0.32675 -0.1345 0.247069)
(1.45417 -0.208438 0.0568392)
(1.55377 -0.167363 0.00467474)
(1.72026 -0.600468 -0.0593485)
(1.58774 -0.682985 0.069317)
(1.13988 -0.296969 -0.090871)
(1.77554 -0.509914 -0.120383)
(1.62902 -0.399445 0.0454007)
(1.08432 -0.195802 0.0339937)
(0.817545 0.241498 -0.00786213)
(0.695731 0.62673 -0.0182531)
(1.1388 0.209808 -0.00578143)
(1.34837 0.0277087 -0.0306141)
(1.40304 -0.434602 -0.00934718)
(1.20783 -0.459109 0.021918)
(0.99587 0.126352 0.0337547)
(1.00829 0.365964 0.0329324)
(1.52113 0.369235 -0.0299182)
(1.82519 0.0108956 -0.131262)
(2.12227 -0.0966222 0.129735)
(1.85781 0.0355843 -0.10457)
(1.55061 -0.135504 0.00516905)
(1.56234 -0.262767 0.0915609)
(1.56201 -0.391188 -0.0240859)
(1.06782 -0.323082 -0.0491477)
(0.970006 -0.354411 0.0374948)
(0.867541 -0.380212 0.00611451)
(0.800997 0.176621 -0.0262519)
(0.812235 0.457742 -0.0228045)
(0.684601 0.683608 -0.0339448)
(0.956768 0.6159 -0.0157129)
(1.35472 -0.0451921 0.00411073)
(1.4618 -0.0508063 -0.0265951)
(1.5174 0.0141037 -0.0457352)
(1.19646 -0.0893988 -0.0109935)
(1.02118 0.147655 0.0121066)
(1.02982 0.121266 -0.00138571)
(1.22995 0.22333 0.0245423)
(1.49282 0.189066 0.0462696)
(1.44235 -0.0729348 -0.0704995)
(1.37571 -0.0728014 -0.0422828)
(1.48869 -0.124774 0.0532778)
(1.39288 -0.191734 0.00899294)
(1.27606 -0.218516 -0.0292908)
(1.23098 -0.188022 -0.0167783)
(1.1356 -0.186705 0.00125854)
(0.915564 -0.336299 0.016168)
(0.718347 -0.116485 0.00269416)
(0.845106 0.04447 -0.0262375)
(0.913951 0.181961 -0.0316313)
(1.3105 0.0851401 -0.0188343)
(1.42413 -0.160254 -0.0139409)
(1.25714 -0.0729135 0.0239552)
(1.31976 -0.194943 0.00896714)
(1.28147 -0.213391 -0.0137027)
(1.02863 0.0945081 -0.0076034)
(1.05498 0.102698 0.0119674)
(1.10105 0.0557508 0.013166)
(1.29299 0.118687 -0.0454543)
(1.33861 0.116175 0.00505647)
(1.24802 0.00714335 0.0420671)
(1.24516 -0.126294 -0.00507792)
(1.20156 -0.131798 -0.0468847)
(1.14852 -0.150982 -0.0254704)
(1.05321 -0.197833 0.0042011)
(1.10212 -0.115334 0.00107465)
(0.979303 -0.119259 -0.00581808)
(0.90532 0.112097 -0.00735582)
(0.964358 0.225209 -0.00384261)
(0.993121 0.254299 -0.00754908)
(1.16648 0.144801 0.016787)
(1.12065 -0.0124021 0.0112984)
(1.13816 0.0357624 0.0117782)
(1.03454 -0.050429 0.0415929)
(0.921121 -0.0620034 0.0210352)
(1.00102 0.0658237 -0.00140563)
(1.07327 0.0685703 0.00341723)
(1.07758 0.0495978 -0.00978168)
(1.10215 0.0686545 0.00625786)
(1.17998 0.015312 0.0138888)
(1.22867 -0.00803922 -0.000625502)
(1.20217 -0.0549951 -0.0121115)
(1.11575 -0.0785863 -0.00886771)
(1.10815 -0.0873269 0.0056972)
(1.00726 -0.147447 0.00317741)
(0.964549 -0.0920934 0.00251759)
(0.902146 -0.136908 0.00502945)
(0.841385 -0.0793469 0.00280146)
(0.942719 0.0338061 0.00125732)
(0.993708 0.0584977 0.00155275)
(1.11842 -0.0121712 -0.000374799)
(1.05904 -0.101639 0.00527852)
(1.06634 0.00360584 0.00282564)
(1.08841 -0.0305367 -0.00677374)
(1.02109 -0.0932676 -0.00214181)
(0.982476 0.0385432 0.00181895)
(1.06808 0.0271261 -0.00155602)
(1.04778 0.0318394 -0.00216073)
(1.09347 0.0484461 0.00755264)
(1.11673 0.0152606 0.00104305)
(1.12831 0.0112666 -0.00183865)
(1.13457 -0.037823 -0.00291101)
(1.07927 -0.0345471 -0.00190637)
(1.07472 -0.0472583 0.00239492)
(1.01056 -0.0965709 0.000547613)
(0.976517 -0.0551374 0.0016648)
(0.963619 -0.0207577 0.000307321)
(0.903446 0.0598567 -0.00238688)
(0.924049 0.0798358 0.00164143)
(0.967012 0.106332 0.0039553)
(1.03312 0.101 0.00291646)
(0.977801 0.0344266 -0.00150658)
(0.983673 0.0214361 -0.000262697)
(1.01714 -0.0153034 0.00255236)
(0.974208 -0.00549265 0.000560745)
(0.989251 0.0193381 0.00098371)
(1.04806 0.0208922 -0.000637608)
(1.0187 0.0181464 -0.000268759)
(1.0802 0.0266092 0.00185774)
(1.07029 0.0067829 -0.00131618)
(1.09206 -0.010991 0.000720482)
(1.09246 -0.0254031 -0.00222308)
(1.04142 -0.0214421 0.00116356)
(1.06085 -0.0324441 0.00033202)
(0.989088 -0.0623619 -0.00133107)
(0.943287 -0.0481111 0.00172531)
(0.907905 -0.0651242 0.000583818)
(0.894141 -0.0395535 -0.000358675)
(0.933989 -0.0115442 0.00105993)
(0.931304 -0.0115797 0.000433816)
(1.00184 -0.0208583 -0.000649418)
(0.993644 -0.0502029 0.00109293)
(0.998413 -0.0179835 0.00118068)
(0.990398 -0.0349599 -0.000251397)
(0.95056 -0.0514856 0.000258379)
(0.989217 0.00668672 0.000314411)
(1.03807 0.00257656 -0.000205737)
(1.02018 0.0051699 -0.000258431)
(1.06425 0.00909442 0.000782359)
(1.0672 0.00345077 -0.000948005)
(1.07793 0.00468006 0.000553802)
(1.0715 -0.00341749 -0.000470629)
(1.03522 -0.00527173 0.00044541)
(1.04252 -0.00330988 0.000256446)
(0.989227 -0.00658724 -0.000294601)
(0.958459 0.00191521 0.000766358)
(0.929142 0.0182753 -3.00881e-05)
(0.904016 0.0371324 -0.000165568)
(0.930646 0.0401486 0.000635328)
(0.934221 0.0490907 0.000242938)
(0.981665 0.047666 -0.000164797)
(0.966252 0.0382183 0.000219565)
(0.970829 0.0260753 0.000486541)
(0.98047 0.0200575 -5.58455e-05)
(0.947392 0.0246177 8.86933e-05)
(0.982041 0.00111156 0.000249945)
(1.02227 -0.0150521 -0.000572958)
(1.0292 -0.00831721 0.000202568)
(1.06643 -0.0146342 7.68947e-05)
(1.08611 -0.0154809 0.000245)
(1.08528 -0.00517706 -2.35781e-06)
(1.08252 -0.0151508 -0.000423952)
(1.07951 -0.0179548 -5.17888e-05)
(1.06733 -0.0197818 -5.77065e-05)
(1.05293 -0.0132097 -8.66045e-07)
(1.02782 -0.0133343 0.000143073)
(1.00591 -0.0107067 -0.000147155)
(0.985078 2.79077e-05 0.000111338)
(0.926488 -0.00540991 -0.000163494)
(0.908146 -0.000316142 -0.000117672)
(0.835478 -0.00474908 0.000204547)
(0.822093 -0.0190765 -0.00120598)
(0.845044 -0.0228902 -0.00188648)
(0.897737 -0.0504905 -0.00347703)
(1.00996 -0.0358745 -0.00208756)
(0.973516 -0.00594197 0.000315591)
(1.03089 -0.0242807 -0.000613318)
(1.0381 -0.0274455 0.000284615)
(1.05375 -0.0252124 7.56534e-05)
(1.10819 0.00370227 0.000803743)
(1.09988 0.0153159 3.93374e-05)
(1.08267 0.0159559 -0.000636474)
(1.09355 0.0310105 -0.000473141)
(1.08537 0.0365221 -0.000371815)
(1.05845 0.0482268 7.60935e-05)
(1.0367 0.0551453 -0.000158056)
(1.0331 0.0425069 -0.00056981)
(0.996029 0.0674497 0.000450379)
(0.932926 0.0661298 0.000179032)
(0.921929 0.070614 0.000557044)
(0.824548 0.0768696 -0.000223974)
(0.808906 -0.000383102 -0.00519878)
(0.821454 -0.0469448 -0.00519873)
(0.889883 -0.116699 -0.0071084)
(1.02904 -0.0677959 -0.0047406)
(1.00334 -0.00296817 -8.38007e-06)
(1.03304 -0.0765526 -0.00134659)
(1.03013 -0.0339128 0.00273454)
(1.09925 -0.0689681 0.0017052)
(1.14615 -0.0517438 -0.00105352)
(1.13153 0.0209536 -0.000102319)
(1.12581 -0.0186836 -0.00336291)
(1.13829 -0.0201901 -0.00294779)
(1.09377 -0.00920193 0.000233218)
(1.07126 0.029598 0.000108672)
(1.06588 0.00223061 0.0014365)
(1.02813 0.0107794 0.00191193)
(1.00879 0.0804907 0.000344277)
(0.958291 0.0566326 -0.00434453)
(0.921773 0.0871666 0.000481419)
(0.794322 0.086272 -0.00231651)
(0.75648 -0.0536377 -0.0105299)
(0.742335 -0.127959 -0.00529688)
(0.825297 -0.291728 0.000165925)
(1.03093 -0.180923 -0.00349864)
(1.00212 -0.0422605 -0.000732908)
(1.01557 -0.0360153 -0.00307855)
(1.08769 -0.0623347 0.00495596)
(1.10767 -0.0837282 0.00792363)
(1.16454 -0.0167365 -0.0014254)
(1.1996 0.0448241 -0.00771322)
(1.18474 -0.0202574 -0.00754083)
(1.1969 0.0437723 -0.00501018)
(1.08047 0.0818416 -0.00569977)
(1.12517 0.0926542 0.00436976)
(1.168 0.110804 0.00612437)
(1.06057 0.10893 -0.00411985)
(1.0485 0.141833 -0.00618949)
(1.00007 0.10383 0.0139664)
(1.05818 0.197844 0.0134728)
(0.799802 0.199754 -0.0193142)
(0.681485 -0.0508244 -0.0129275)
(0.593825 -0.14281 0.00454982)
(0.626162 -0.3801 0.0207862)
(0.963283 -0.260004 0.00804332)
(0.961265 -0.0325683 -0.00176586)
(1.1275 -0.177642 -0.00642955)
(1.18906 -0.0965923 0.0104922)
(1.20945 -0.0547411 0.0337273)
(1.2949 -0.146085 0.00675941)
(1.24595 -0.0530433 -0.0106407)
(1.28222 -0.100011 -0.0114297)
(1.27678 0.0448223 -0.0149765)
(1.23827 -0.0352626 -0.0158499)
(1.20592 0.0114306 -0.0214958)
(1.04739 0.0910437 -0.00471163)
(1.17791 0.0782527 0.0372871)
(1.24274 0.0672999 0.0265959)
(1.05947 0.168298 -0.01412)
(0.882339 0.362658 -0.036429)
(0.580073 0.200525 -0.000301108)
(0.610253 -0.000517363 0.0357503)
(0.493255 -0.0401423 0.029705)
(0.472351 -0.462046 0.0192927)
(0.80324 -0.39327 0.00754972)
(0.96675 -0.15075 -0.00361843)
(1.13014 -0.181406 -0.0132242)
(1.1493 -0.0560334 -0.00430013)
(1.32105 0.118272 0.0432775)
(1.58023 0.0146362 0.0690418)
(1.36552 -0.0078851 0.0120105)
(1.43531 -0.0908813 -0.0135993)
(1.57036 0.0387056 -0.0191686)
(1.3193 -0.0523539 -0.0278539)
(1.24374 0.111109 -0.0148162)
(1.46872 0.142219 0.00488029)
(1.25174 0.24774 -0.0287241)
(0.974859 0.47144 -0.0304657)
(0.938129 0.265401 0.00862562)
(1.19197 0.238453 0.0344743)
(1.17978 0.415629 0.0356473)
(0.90953 0.345193 0.00156453)
(0.746331 0.24228 0.00327776)
(0.605352 -0.420838 -0.0165477)
(0.653698 -0.477957 -0.0159274)
(0.967492 -0.15883 -0.0218773)
(1.16762 -0.381078 0.0279974)
(1.25471 -0.351386 0.0079563)
(1.70717 -0.230546 -0.0633383)
(1.49287 0.141521 -0.00524149)
(1.77852 0.0558153 0.0113269)
(1.69346 -0.293775 -0.00881839)
(1.40942 0.11569 0.000408768)
(1.15236 -0.0133909 0.000777525)
(1.63388 -0.0981437 -0.00164898)
(1.83741 0.0763816 -0.0308993)
(1.54074 0.196642 -0.0160204)
(1.3775 0.190439 0.0159961)
(1.18958 0.153129 0.0473308)
(1.3993 0.406471 0.0274088)
(1.35613 0.63266 -0.0347595)
(1.14832 0.401003 -0.0314678)
(1.09106 0.319229 -0.00497674)
(0.962923 -0.348229 -0.00309449)
(0.73322 -0.586887 -0.0016735)
(1.00337 -0.437847 0.00611598)
(0.958828 -0.0832633 0.040632)
(1.69558 -0.359293 -0.105695)
(2.10354 -0.764852 -0.18057)
(1.87529 -0.0776755 -0.0473919)
(1.46074 0.111268 -0.0230627)
(0.819441 -0.0504803 0.0989052)
(1.32006 0.557322 0.00878769)
(0.629068 -0.0477226 -0.0219241)
(1.18572 -0.251262 0.0195248)
(1.04603 -0.0114836 0.00996853)
(1.10725 0.446434 0.0414298)
(1.58404 0.821603 0.094685)
(1.88921 0.547898 0.064499)
(1.62481 0.327248 -0.037847)
(1.03732 0.368205 -0.029617)
(1.1008 0.253722 0.0231338)
(1.30832 0.460965 0.00268368)
(1.33978 0.0607253 -0.0237829)
(1.06129 -0.293792 -0.00464329)
(0.986326 -0.0549523 0.0673512)
(1.12207 -1.07359 -0.000401912)