/*--------------------------------*- C++ -*----------------------------------*\
  =========                 |
  \\      /  F ield         | OpenFOAM: The Open Source CFD Toolbox
   \\    /   O peration     | Website:  https://openfoam.org
    \\  /    A nd           | Version:  8
     \\/     M anipulation  |
\*---------------------------------------------------------------------------*/
FoamFile
{
    version     2.0;
    format      ascii;
    class       volVectorField;
    location    "3";
    object      U;
}
// * * * * * * * * * * * * * * * * * * * * * * * * * * * * * * * * * * * * * //

dimensions      [0 1 -1 0 0 0 0];

internalField   nonuniform List<vector> 
464
(
(-1.64596e-05 1.63394e-05 0)
(-4.90975e-05 1.60211e-05 0)
(-8.05953e-05 1.52019e-05 0)
(-0.000110036 1.40149e-05 0)
(-0.000136748 1.25079e-05 0)
(-0.000160141 1.07393e-05 0)
(-0.000179746 8.77679e-06 0)
(-0.000195288 6.69254e-06 0)
(-0.000206364 4.56054e-06 0)
(-0.000215065 2.3552e-06 0)
(-0.000212917 8.09128e-07 0)
(-0.000228835 -2.04043e-06 0)
(-1.69753e-05 4.95767e-05 0)
(-5.06287e-05 4.86035e-05 0)
(-8.30858e-05 4.61044e-05 0)
(-0.00011339 4.24851e-05 0)
(-0.000140845 3.78916e-05 0)
(-0.000164834 3.25024e-05 0)
(-0.000184872 2.65267e-05 0)
(-0.000200676 2.02056e-05 0)
(-0.000211942 1.39163e-05 0)
(-0.000220107 7.95093e-06 0)
(-0.000218918 4.83924e-06 0)
(-0.000230682 -2.18608e-06 0)
(-1.78303e-05 8.41866e-05 0)
(-5.31644e-05 8.25096e-05 0)
(-8.71993e-05 7.8222e-05 0)
(-0.00011891 7.20177e-05 0)
(-0.000147554 6.41478e-05 0)
(-0.000172469 5.49104e-05 0)
(-0.000193124 4.46394e-05 0)
(-0.000209073 3.36999e-05 0)
(-0.000219862 2.25647e-05 0)
(-0.000225434 1.16365e-05 0)
(-0.000224343 2.84187e-06 0)
(-0.000219851 -8.24721e-06 0)
(-1.91586e-05 0.000120928 0)
(-5.71011e-05 0.000118466 0)
(-9.35796e-05 0.000112213 0)
(-0.000127466 0.000103181 0)
(-0.000157954 9.17418e-05 0)
(-0.000184344 7.83243e-05 0)
(-0.000206084 6.33799e-05 0)
(-0.000222753 4.73644e-05 0)
(-0.000234008 3.07089e-05 0)
(-0.000239832 1.37623e-05 0)
(-0.000238804 -2.84029e-06 0)
(-0.000233142 -1.9857e-05 0)
(-2.10189e-05 0.00016082 0)
(-6.26075e-05 0.000157447 0)
(-0.000102486 0.000148959 0)
(-0.000139381 0.000136738 0)
(-0.00017241 0.000121312 0)
(-0.000200831 0.000103269 0)
(-0.000224084 8.32058e-05 0)
(-0.000241744 6.16961e-05 0)
(-0.000253464 3.92855e-05 0)
(-0.000258983 1.64642e-05 0)
(-0.000257962 -6.07027e-06 0)
(-0.000250687 -2.89928e-05 0)
(-2.34982e-05 0.000204988 0)
(-6.99303e-05 0.000200514 0)
(-0.000114291 0.000189403 0)
(-0.000155113 0.000173483 0)
(-0.000191422 0.000153499 0)
(-0.00022245 0.000130244 0)
(-0.000247657 0.000104489 0)
(-0.000266674 7.69357e-05 0)
(-0.00027924 4.81981e-05 0)
(-0.000285188 1.87747e-05 0)
(-0.000284261 -1.09031e-05 0)
(-0.000276599 -4.05928e-05 0)
(-2.6725e-05 0.000254763 0)
(-7.94265e-05 0.000248899 0)
(-0.000129519 0.000234611 0)
(-0.000175285 0.000214279 0)
(-0.000215648 0.00018897 0)
(-0.000249841 0.000159747 0)
(-0.000277392 0.000127605 0)
(-0.000298035 9.34002e-05 0)
(-0.000311625 5.78412e-05 0)
(-0.000318085 2.14938e-05 0)
(-0.00031733 -1.51639e-05 0)
(-0.00030939 -5.18545e-05 0)
(-3.08928e-05 0.000311773 0)
(-9.16166e-05 0.000304068 0)
(-0.000148914 0.000285801 0)
(-0.000200754 0.000260055 0)
(-0.000245954 0.000228384 0)
(-0.000283815 0.00019222 0)
(-0.000314004 0.000152837 0)
(-0.000336438 0.000111267 0)
(-0.000351146 6.83057e-05 0)
(-0.000358193 2.45449e-05 0)
(-0.00035761 -1.95592e-05 0)
(-0.000349414 -6.36497e-05 0)
(-3.63037e-05 0.00037809 0)
(-0.000107276 0.000367799 0)
(-0.000173536 0.000344387 0)
(-0.000232703 0.000311788 0)
(-0.000283484 0.000272356 0)
(-0.000325389 0.000227995 0)
(-0.000358345 0.000180336 0)
(-0.000382566 0.000130592 0)
(-0.000398347 7.96155e-05 0)
(-0.000405949 2.79675e-05 0)
(-0.000405524 -2.39751e-05 0)
(-0.000397089 -7.59214e-05 0)
(-4.34564e-05 0.00045644 0)
(-0.000127596 0.000442286 0)
(-0.000204929 0.000412017 0)
(-0.000272785 0.000370461 0)
(-0.000329747 0.000321372 0)
(-0.000375835 0.000267206 0)
(-0.000411408 0.000210036 0)
(-0.000437158 0.000151234 0)
(-0.000453771 9.16441e-05 0)
(-0.000461783 3.17059e-05 0)
(-0.000461499 -2.84033e-05 0)
(-0.000452931 -8.86004e-05 0)
(-5.31995e-05 0.000550818 0)
(-0.000154446 0.000530351 0)
(-0.000245366 0.000490653 0)
(-0.000323347 0.000436967 0)
(-0.000386739 0.00037565 0)
(-0.000436725 0.000309631 0)
(-0.000474318 0.000241494 0)
(-0.000500958 0.00017273 0)
(-0.000517875 0.000104063 0)
(-0.000525997 3.56276e-05 0)
(-0.00052583 -3.27697e-05 0)
(-0.000517394 -0.000101425 0)
(-6.72317e-05 0.000665818 0)
(-0.000191076 0.000635109 0)
(-0.000298319 0.000582409 0)
(-0.000387788 0.000511835 0)
(-0.000457083 0.000434885 0)
(-0.000509992 0.000354388 0)
(-0.000548309 0.000273737 0)
(-0.000574589 0.000194281 0)
(-0.000590873 0.000116346 0)
(-0.000598616 3.9539e-05 0)
(-0.000598551 -3.69159e-05 0)
(-0.000590694 -0.00011391 0)
(-8.79085e-05 0.000815727 0)
(-0.000241864 0.000762647 0)
(-0.000368647 0.000690869 0)
(-0.000470871 0.000594983 0)
(-0.000544186 0.000497739 0)
(-0.000597873 0.000399781 0)
(-0.000634425 0.000305168 0)
(-0.000658348 0.000214599 0)
(-0.000672616 0.000127663 0)
(-0.000679259 4.31487e-05 0)
(-0.000679279 -4.05678e-05 0)
(-0.000672694 -0.000125237 0)
(-0.000125198 0.000979399 0)
(-0.000320833 0.000901817 0)
(-0.00046599 0.000810075 0)
(-0.000580919 0.000682296 0)
(-0.000652284 0.000561043 0)
(-0.000702562 0.00044268 0)
(-0.000733491 0.000333037 0)
(-0.000752093 0.000231575 0)
(-0.000762324 0.000136709 0)
(-0.000766847 4.60077e-05 0)
(-0.000766936 -4.33104e-05 0)
(-0.000762613 -0.000134128 0)
(-0.000171421 0.00131645 0)
(-0.000417156 0.00112062 0)
(-0.000588171 0.000986522 0)
(-0.00071991 0.000783544 0)
(-0.000783802 0.000625348 0)
(-0.00082588 0.000479798 0)
(-0.00084553 0.000353781 0)
(-0.000854677 0.000242444 0)
(-0.000858184 0.000141736 0)
(-0.000859278 4.7505e-05 0)
(-0.000859415 -4.45764e-05 0)
(-0.000858625 -0.000138874 0)
(-0.000328787 0.00148574 0)
(-0.000658583 0.00123521 0)
(-0.000803044 0.00108355 0)
(-0.0009421 0.000836224 0)
(-0.000956019 0.000659309 0)
(-0.000974128 0.000495322 0)
(-0.000970845 0.000358658 0)
(-0.000964139 0.000242018 0)
(-0.000957263 0.000140075 0)
(-0.000953159 4.68164e-05 0)
(-0.000953315 -4.35728e-05 0)
(-0.000957776 -0.00013682 0)
(-0.000430739 0.00249255 0)
(-0.000828791 0.00164312 0)
(-0.000987131 0.00140713 0)
(-0.00114424 0.000940852 0)
(-0.00112471 0.000710347 0)
(-0.00112654 0.000500383 0)
(-0.00109884 0.000348422 0)
(-0.00107326 0.000228827 0)
(-0.00105339 0.000130425 0)
(-0.00104293 4.34237e-05 0)
(-0.00104305 -3.99168e-05 0)
(-0.00105381 -0.000126831 0)
(-0.00119261 0.00251629 0)
(-0.00175906 0.0015804 0)
(-0.0015048 0.00134168 0)
(-0.00163883 0.00085319 0)
(-0.00139634 0.00063378 0)
(-0.00133598 0.000433198 0)
(-0.00124233 0.000296277 0)
(-0.00118207 0.000191589 0)
(-0.0011426 0.000108115 0)
(-0.00112343 3.60855e-05 0)
(-0.0011235 -3.22537e-05 0)
(-0.00114292 -0.000104022 0)
(-0.00140902 0.00600013 0)
(-0.00201266 0.00194804 0)
(-0.00169538 0.00160165 0)
(-0.00182463 0.000785836 0)
(-0.00151395 0.000528048 0)
(-0.00143134 0.000335186 0)
(-0.00130658 0.000215091 0)
(-0.00122683 0.000134049 0)
(-0.00117379 7.40502e-05 0)
(-0.00114778 2.46873e-05 0)
(-0.00114726 -2.13802e-05 0)
(-0.00117215 -7.04825e-05 0)
(0.00651903 0.00530747 0)
(0.00568415 0.00144256 0)
(0.00919206 0.00114476 0)
(0.00917865 0.000466752 0)
(0.01004 0.000278021 0)
(0.0102453 0.000157433 0)
(0.010452 9.07001e-05 0)
(0.0105739 5.2968e-05 0)
(0.0106461 2.82853e-05 0)
(0.0106803 9.53586e-06 0)
(0.0106816 -7.43824e-06 0)
(0.0106503 -2.59652e-05 0)
(-0.000195512 0.000103757 0)
(-0.000132562 5.04068e-05 0)
(-0.000111598 9.51001e-06 0)
(-8.73682e-05 -1.70535e-05 0)
(-6.76403e-05 -3.67332e-05 0)
(-4.79703e-05 -5.03716e-05 0)
(-2.86937e-05 -5.91298e-05 0)
(-9.55423e-06 -6.29967e-05 0)
(-0.000201153 1.55081e-05 0)
(-0.000146435 -7.34992e-06 0)
(-0.00012413 -2.51791e-05 0)
(-9.981e-05 -4.41597e-05 0)
(-7.86067e-05 -5.97279e-05 0)
(-5.69414e-05 -7.19812e-05 0)
(-3.45085e-05 -8.04382e-05 0)
(-1.15317e-05 -8.42051e-05 0)
(-0.000201373 3.85754e-07 0)
(-0.000173251 -2.32147e-05 0)
(-0.000148408 -4.36355e-05 0)
(-0.000121917 -6.46679e-05 0)
(-9.54617e-05 -8.24494e-05 0)
(-6.86816e-05 -9.61987e-05 0)
(-4.14249e-05 -0.000105461 0)
(-1.38275e-05 -0.000109471 0)
(-0.000216122 -3.36762e-05 0)
(-0.000190456 -5.40195e-05 0)
(-0.000165584 -7.41231e-05 0)
(-0.000138624 -9.37571e-05 0)
(-0.000110138 -0.000111254 0)
(-7.99541e-05 -0.000125397 0)
(-4.844e-05 -0.000135266 0)
(-1.61998e-05 -0.00013947 0)
(-0.000235535 -4.95274e-05 0)
(-0.000213698 -7.44888e-05 0)
(-0.000188145 -9.90958e-05 0)
(-0.000159048 -0.000122252 0)
(-0.000127102 -0.000142372 0)
(-9.26951e-05 -0.00015846 0)
(-5.63376e-05 -0.000169689 0)
(-1.88695e-05 -0.000174391 0)
(-0.000261618 -6.96061e-05 0)
(-0.000240024 -9.91863e-05 0)
(-0.000213347 -0.0001278 0)
(-0.000181901 -0.000154403 0)
(-0.000146345 -0.000177666 0)
(-0.000107273 -0.000196385 0)
(-6.54218e-05 -0.000209517 0)
(-2.19499e-05 -0.000214981 0)
(-0.000294129 -8.7979e-05 0)
(-0.000271891 -0.000123778 0)
(-0.000243361 -0.000158039 0)
(-0.000208914 -0.000189694 0)
(-0.000169084 -0.000217399 0)
(-0.000124548 -0.000239795 0)
(-7.62279e-05 -0.00025559 0)
(-2.56256e-05 -0.000262196 0)
(-0.000333542 -0.000107259 0)
(-0.000310084 -0.00015004 0)
(-0.000279263 -0.000191012 0)
(-0.000241261 -0.000228977 0)
(-0.000196447 -0.00026243 0)
(-0.000145467 -0.000289727 0)
(-8.94011e-05 -0.000309135 0)
(-3.0132e-05 -0.00031741 0)
(-0.000380519 -0.000127492 0)
(-0.000355645 -0.000178196 0)
(-0.000322299 -0.000227086 0)
(-0.000280332 -0.000272829 0)
(-0.000229835 -0.000313637 0)
(-0.000171257 -0.000347447 0)
(-0.000105821 -0.00037176 0)
(-3.5807e-05 -0.000382512 0)
(-0.000435816 -0.000148708 0)
(-0.000409678 -0.000208295 0)
(-0.000373896 -0.000266456 0)
(-0.000327811 -0.000321733 0)
(-0.000271065 -0.000371944 0)
(-0.000203595 -0.000414509 0)
(-0.000126768 -0.000445542 0)
(-4.31814e-05 -0.000460109 0)
(-0.000500214 -0.000170532 0)
(-0.000473392 -0.00023995 0)
(-0.000435737 -0.000308923 0)
(-0.00038582 -0.000375893 0)
(-0.00032261 -0.000438194 0)
(-0.000244862 -0.000492811 0)
(-0.000154191 -0.000533229 0)
(-5.31373e-05 -0.000554139 0)
(-0.000574342 -0.000192216 0)
(-0.000548069 -0.000272228 0)
(-0.000509838 -0.00035361 0)
(-0.000457082 -0.000434977 0)
(-0.000387982 -0.000512874 0)
(-0.000298637 -0.000584425 0)
(-0.000191429 -0.000637901 0)
(-6.74176e-05 -0.000669213 0)
(-0.000658532 -0.000212487 0)
(-0.000634786 -0.000303538 0)
(-0.000598486 -0.000398808 0)
(-0.000545084 -0.0004976 0)
(-0.000472057 -0.000595828 0)
(-0.000369898 -0.000692889 0)
(-0.000243006 -0.000765592 0)
(-8.84693e-05 -0.0008196 0)
(-0.000752643 -0.000229241 0)
(-0.00073439 -0.000331103 0)
(-0.000703901 -0.000441337 0)
(-0.000654103 -0.000560517 0)
(-0.00058327 -0.000682799 0)
(-0.000468415 -0.000812176 0)
(-0.000323055 -0.000905015 0)
(-0.000126332 -0.000984778 0)
(-0.000855507 -0.00023974 0)
(-0.000846882 -0.000351377 0)
(-0.000827899 -0.000477955 0)
(-0.000786546 -0.000624455 0)
(-0.000723709 -0.00078391 0)
(-0.000592135 -0.000989208 0)
(-0.000421582 -0.00112506 0)
(-0.00017422 -0.0013238 0)
(-0.000965146 -0.000238762 0)
(-0.000972606 -0.000355448 0)
(-0.000976979 -0.000492243 0)
(-0.000960069 -0.000656734 0)
(-0.000948016 -0.000833989 0)
(-0.000809622 -0.001085 0)
(-0.000665443 -0.00123715 0)
(-0.000332901 -0.00149843 0)
(-0.00107413 -0.000225132 0)
(-0.00110036 -0.000344768 0)
(-0.00112918 -0.000496982 0)
(-0.00112829 -0.00070802 0)
(-0.00115188 -0.000939917 0)
(-0.000995362 -0.00141123 0)
(-0.000843837 -0.00165239 0)
(-0.000444964 -0.00251273 0)
(-0.00118301 -0.000186899 0)
(-0.00124438 -0.000290563 0)
(-0.00134016 -0.000425856 0)
(-0.00140301 -0.000625685 0)
(-0.00165113 -0.000840125 0)
(-0.0015225 -0.001336 0)
(-0.00178123 -0.00156514 0)
(-0.00120798 -0.00255687 0)
(-0.00122385 -0.000129911 0)
(-0.00130177 -0.000210114 0)
(-0.00142559 -0.000328772 0)
(-0.00150187 -0.000521945 0)
(-0.00181826 -0.000778399 0)
(-0.00166781 -0.00160273 0)
(-0.00201429 -0.00197049 0)
(-0.00135352 -0.00606758 0)
(0.0105811 -5.0213e-05 0)
(0.0104634 -8.735e-05 0)
(0.0102582 -0.000152842 0)
(0.0100679 -0.00027278 0)
(0.00919366 -0.000456032 0)
(0.0092437 -0.00113614 0)
(0.00569887 -0.00142723 0)
(0.00656365 -0.00528882 0)
(-1.54772e-06 1.20085e-06 0)
(-4.31261e-06 9.46151e-07 0)
(-6.27845e-06 5.26435e-07 0)
(-7.21502e-06 9.16324e-10 0)
(-7.02168e-06 -4.19218e-07 0)
(-5.79911e-06 -8.0784e-07 0)
(-3.79508e-06 -1.10564e-06 0)
(-1.31619e-06 -1.25591e-06 0)
(-1.81979e-06 4.90959e-06 0)
(-5.02094e-06 3.98558e-06 0)
(-7.26122e-06 2.51506e-06 0)
(-8.20374e-06 8.06076e-07 0)
(-7.87233e-06 -9.5578e-07 0)
(-6.52021e-06 -2.40784e-06 0)
(-4.27346e-06 -3.42099e-06 0)
(-1.48192e-06 -3.91455e-06 0)
(-2.50922e-06 7.49901e-06 0)
(-6.76124e-06 5.88813e-06 0)
(-9.4956e-06 3.38188e-06 0)
(-1.0729e-05 3.95517e-07 0)
(-1.02776e-05 -2.2808e-06 0)
(-8.29909e-06 -4.6034e-06 0)
(-5.34824e-06 -6.28235e-06 0)
(-1.84129e-06 -7.11608e-06 0)
(-3.47815e-06 1.54982e-05 0)
(-9.18568e-06 1.20231e-05 0)
(-1.2754e-05 7.19195e-06 0)
(-1.38665e-05 1.92979e-06 0)
(-1.28713e-05 -3.08484e-06 0)
(-1.05219e-05 -7.06363e-06 0)
(-6.82907e-06 -9.80121e-06 0)
(-2.35846e-06 -1.11101e-05 0)
(-6.07403e-06 1.82592e-05 0)
(-1.51574e-05 1.34795e-05 0)
(-1.95891e-05 7.02923e-06 0)
(-2.10058e-05 -6.57298e-08 0)
(-1.9271e-05 -6.15643e-06 0)
(-1.50156e-05 -1.12474e-05 0)
(-9.46184e-06 -1.48102e-05 0)
(-3.21718e-06 -1.65481e-05 0)
(-8.37251e-06 4.0524e-05 0)
(-2.05307e-05 2.82147e-05 0)
(-2.62995e-05 1.47353e-05 0)
(-2.70522e-05 2.16695e-06 0)
(-2.40531e-05 -8.30944e-06 0)
(-1.91759e-05 -1.61138e-05 0)
(-1.22295e-05 -2.12642e-05 0)
(-4.1959e-06 -2.36689e-05 0)
(-1.86226e-05 4.20457e-05 0)
(-4.11851e-05 2.71934e-05 0)
(-4.56371e-05 1.12899e-05 0)
(-4.40505e-05 -3.17207e-06 0)
(-3.75516e-05 -1.52234e-05 0)
(-2.79706e-05 -2.4407e-05 0)
(-1.716e-05 -3.05908e-05 0)
(-5.76461e-06 -3.34786e-05 0)
(-2.38427e-05 0.000110875 0)
(-5.15485e-05 6.10034e-05 0)
(-5.66661e-05 2.05275e-05 0)
(-5.35658e-05 -4.95815e-06 0)
(-4.52882e-05 -2.27914e-05 0)
(-3.45438e-05 -3.50472e-05 0)
(-2.15032e-05 -4.27908e-05 0)
(-7.28536e-06 -4.63015e-05 0)
)
;

boundaryField
{
    movingWall
    {
        type            fixedValue;
        value           uniform (1 0 0);
    }
    fixedWalls
    {
        type            noSlip;
    }
    frontAndBack
    {
        type            empty;
    }
}


// ************************************************************************* //
