0 	0 	0 	0
1.57135 	-0.000556744 	0.000508239 	0
3.1427 	-0.00123861 	0.000889307 	0
4.71405 	-0.00209881 	0.000969364 	0
6.28539 	-0.00313354 	0.000587557 	0
7.85674 	-0.00430709 	-0.000375393 	0
9.42809 	-0.00574447 	-0.00199611 	0
10.9994 	-0.00832166 	-0.00453103 	0
12.5708 	-0.0122524 	-0.010791 	0
14.1421 	0.5 	0 	0
