0 	7.69192e-08
1.57135 	-1.93161e-06
3.1427 	-1.94431e-05
4.71405 	-8.0582e-05
6.28539 	-0.000250897
7.85674 	-0.000727004
9.42809 	-0.00220367
10.9994 	-0.005192
12.5708 	-0.00437714
14.1421 	0.250492
