/*--------------------------------*- C++ -*----------------------------------*\
  =========                 |
  \\      /  F ield         | OpenFOAM: The Open Source CFD Toolbox
   \\    /   O peration     | Website:  https://openfoam.org
    \\  /    A nd           | Version:  8
     \\/     M anipulation  |
\*---------------------------------------------------------------------------*/
FoamFile
{
    version     2.0;
    format      ascii;
    class       volVectorField;
    location    "7.5";
    object      U;
}
// * * * * * * * * * * * * * * * * * * * * * * * * * * * * * * * * * * * * * //

dimensions      [0 1 -1 0 0 0 0];

internalField   nonuniform List<vector> 
11600
(
(-1.08077e-05 1.07956e-05 0)
(-4.45356e-05 1.62525e-05 0)
(-8.72359e-05 1.68772e-05 0)
(-0.000127377 1.68855e-05 0)
(-0.000168031 1.68236e-05 0)
(-0.000208518 1.67479e-05 0)
(-0.000248797 1.66602e-05 0)
(-0.000288846 1.65588e-05 0)
(-0.00032863 1.6443e-05 0)
(-0.000368111 1.63127e-05 0)
(-0.000407256 1.61677e-05 0)
(-0.000446027 1.60083e-05 0)
(-0.00048439 1.58346e-05 0)
(-0.000522311 1.56468e-05 0)
(-0.000559755 1.54452e-05 0)
(-0.000596689 1.52298e-05 0)
(-0.000633081 1.50011e-05 0)
(-0.000668897 1.47593e-05 0)
(-0.000704107 1.45047e-05 0)
(-0.00073868 1.42376e-05 0)
(-0.000772587 1.39584e-05 0)
(-0.000805798 1.36674e-05 0)
(-0.000838285 1.33651e-05 0)
(-0.000870023 1.30519e-05 0)
(-0.000900985 1.27282e-05 0)
(-0.000931146 1.23946e-05 0)
(-0.000960484 1.20515e-05 0)
(-0.000988977 1.16995e-05 0)
(-0.0010166 1.13393e-05 0)
(-0.00104335 1.09716e-05 0)
(-0.00106919 1.0597e-05 0)
(-0.00109411 1.02165e-05 0)
(-0.00111811 9.83096e-06 0)
(-0.00114116 9.44138e-06 0)
(-0.00116327 9.04895e-06 0)
(-0.00118442 8.65501e-06 0)
(-0.00120462 8.2611e-06 0)
(-0.00122387 7.869e-06 0)
(-0.00124217 7.48081e-06 0)
(-0.00125955 7.09904e-06 0)
(-0.00127601 6.72672e-06 0)
(-0.00129159 6.36753e-06 0)
(-0.00130632 6.02607e-06 0)
(-0.00132025 5.70809e-06 0)
(-0.00133346 5.42096e-06 0)
(-0.00134602 5.17427e-06 0)
(-0.00135805 4.98073e-06 0)
(-0.0013697 4.8576e-06 0)
(-0.00138117 4.82889e-06 0)
(-0.00139273 4.92856e-06 0)
(-0.00140473 5.20621e-06 0)
(-0.00141769 5.73724e-06 0)
(-0.00143236 6.64122e-06 0)
(-0.00144983 8.11669e-06 0)
(-0.00147201 1.05199e-05 0)
(-0.00150109 1.45973e-05 0)
(-0.00153628 2.16367e-05 0)
(-0.00162433 3.32326e-05 0)
(-0.00164416 9.20321e-05 0)
(-0.00203123 0.000294333 0)
(-1.63007e-05 4.45452e-05 0)
(-6.36218e-05 6.35017e-05 0)
(-0.000121924 6.57653e-05 0)
(-0.00017718 6.58232e-05 0)
(-0.000233045 6.56097e-05 0)
(-0.000288695 6.53236e-05 0)
(-0.000344064 6.49796e-05 0)
(-0.000399113 6.45773e-05 0)
(-0.000453791 6.41163e-05 0)
(-0.000508047 6.3597e-05 0)
(-0.000561831 6.30198e-05 0)
(-0.000615092 6.23853e-05 0)
(-0.000667783 6.16943e-05 0)
(-0.000719856 6.09477e-05 0)
(-0.000771262 6.01463e-05 0)
(-0.000821957 5.92913e-05 0)
(-0.000871893 5.83836e-05 0)
(-0.000921028 5.74245e-05 0)
(-0.000969317 5.64153e-05 0)
(-0.00101672 5.53572e-05 0)
(-0.00106319 5.42517e-05 0)
(-0.0011087 5.31004e-05 0)
(-0.00115319 5.1905e-05 0)
(-0.00119665 5.0667e-05 0)
(-0.00123902 4.93885e-05 0)
(-0.00128029 4.80714e-05 0)
(-0.00132041 4.67179e-05 0)
(-0.00135935 4.53304e-05 0)
(-0.0013971 4.39112e-05 0)
(-0.00143361 4.24632e-05 0)
(-0.00146888 4.09895e-05 0)
(-0.00150288 3.94931e-05 0)
(-0.00153559 3.7978e-05 0)
(-0.001567 3.6448e-05 0)
(-0.00159709 3.4908e-05 0)
(-0.00162587 3.33631e-05 0)
(-0.00165333 3.18195e-05 0)
(-0.00167947 3.0284e-05 0)
(-0.00170431 2.87652e-05 0)
(-0.00172786 2.72727e-05 0)
(-0.00175015 2.58186e-05 0)
(-0.00177122 2.44172e-05 0)
(-0.00179111 2.30867e-05 0)
(-0.0018099 2.18498e-05 0)
(-0.00182768 2.07353e-05 0)
(-0.00184455 1.97812e-05 0)
(-0.00186067 1.90376e-05 0)
(-0.00187624 1.85728e-05 0)
(-0.00189151 1.84819e-05 0)
(-0.00190683 1.89008e-05 0)
(-0.00192267 2.0028e-05 0)
(-0.00193968 2.21667e-05 0)
(-0.00195875 2.57963e-05 0)
(-0.00198122 3.17038e-05 0)
(-0.00200914 4.12566e-05 0)
(-0.00204485 5.7076e-05 0)
(-0.00208982 8.3303e-05 0)
(-0.00217648 0.000123892 0)
(-0.00221554 0.000234866 0)
(-0.00246906 0.000357902 0)
(-1.69838e-05 8.73895e-05 0)
(-6.61178e-05 0.000121876 0)
(-0.000126537 0.000126046 0)
(-0.000183782 0.000126155 0)
(-0.000241645 0.000125759 0)
(-0.000299278 0.000125214 0)
(-0.000356618 0.000124552 0)
(-0.000413626 0.000123775 0)
(-0.000470247 0.000122884 0)
(-0.000526429 0.00012188 0)
(-0.000582121 0.000120764 0)
(-0.000637271 0.000119537 0)
(-0.000691828 0.000118202 0)
(-0.000745742 0.000116759 0)
(-0.000798964 0.000115211 0)
(-0.000851447 0.00011356 0)
(-0.000903143 0.000111807 0)
(-0.000954006 0.000109956 0)
(-0.00100399 0.000108008 0)
(-0.00105305 0.000105967 0)
(-0.00110115 0.000103834 0)
(-0.00114824 0.000101614 0)
(-0.00119429 9.93089e-05 0)
(-0.00123926 9.69224e-05 0)
(-0.0012831 9.44583e-05 0)
(-0.00132579 9.19204e-05 0)
(-0.00136729 8.9313e-05 0)
(-0.00140757 8.66404e-05 0)
(-0.00144661 8.39075e-05 0)
(-0.00148437 8.11197e-05 0)
(-0.00152083 7.82827e-05 0)
(-0.00155597 7.54028e-05 0)
(-0.00158978 7.24871e-05 0)
(-0.00162223 6.95433e-05 0)
(-0.00165331 6.65803e-05 0)
(-0.00168302 6.36081e-05 0)
(-0.00171136 6.06382e-05 0)
(-0.00173833 5.76838e-05 0)
(-0.00176393 5.47605e-05 0)
(-0.00178818 5.18868e-05 0)
(-0.00181112 4.90849e-05 0)
(-0.00183276 4.63818e-05 0)
(-0.00185316 4.38109e-05 0)
(-0.00187238 4.14139e-05 0)
(-0.00189051 3.92439e-05 0)
(-0.00190764 3.73697e-05 0)
(-0.0019239 3.58817e-05 0)
(-0.00193948 3.49016e-05 0)
(-0.00195458 3.45964e-05 0)
(-0.00196949 3.52001e-05 0)
(-0.00198457 3.70482e-05 0)
(-0.00200028 4.06345e-05 0)
(-0.00201721 4.6707e-05 0)
(-0.0020361 5.64269e-05 0)
(-0.00205781 7.16601e-05 0)
(-0.00208289 9.55863e-05 0)
(-0.00211151 0.00013287 0)
(-0.00215316 0.000189297 0)
(-0.00215836 0.000303504 0)
(-0.0022309 0.000417956 0)
(-1.70736e-05 0.000127862 0)
(-6.6503e-05 0.000177471 0)
(-0.000127279 0.000183442 0)
(-0.000184838 0.000183576 0)
(-0.000243025 0.000182993 0)
(-0.000300979 0.000182199 0)
(-0.000358637 0.000181234 0)
(-0.000415961 0.0001801 0)
(-0.000472896 0.0001788 0)
(-0.000529389 0.000177335 0)
(-0.000585388 0.000175707 0)
(-0.000640842 0.000173918 0)
(-0.000695699 0.000171971 0)
(-0.000749908 0.000169867 0)
(-0.000803422 0.000167609 0)
(-0.00085619 0.000165201 0)
(-0.000908166 0.000162646 0)
(-0.000959304 0.000159946 0)
(-0.00100956 0.000157106 0)
(-0.00105888 0.00015413 0)
(-0.00110724 0.000151021 0)
(-0.00115458 0.000147784 0)
(-0.00120086 0.000144423 0)
(-0.00124606 0.000140944 0)
(-0.00129013 0.000137351 0)
(-0.00133303 0.000133652 0)
(-0.00137474 0.00012985 0)
(-0.00141522 0.000125954 0)
(-0.00145444 0.000121969 0)
(-0.00149238 0.000117904 0)
(-0.001529 0.000113767 0)
(-0.0015643 0.000109567 0)
(-0.00159824 0.000105314 0)
(-0.00163081 0.000101019 0)
(-0.001662 9.66948e-05 0)
(-0.00169181 9.23552e-05 0)
(-0.00172022 8.80167e-05 0)
(-0.00174723 8.36979e-05 0)
(-0.00177286 7.94205e-05 0)
(-0.00179711 7.52104e-05 0)
(-0.00182001 7.10983e-05 0)
(-0.00184157 6.71214e-05 0)
(-0.00186185 6.33253e-05 0)
(-0.00188089 5.97665e-05 0)
(-0.00189875 5.65162e-05 0)
(-0.00191552 5.36654e-05 0)
(-0.00193131 5.13319e-05 0)
(-0.00194623 4.96712e-05 0)
(-0.00196046 4.88914e-05 0)
(-0.00197417 4.92756e-05 0)
(-0.00198761 5.12157e-05 0)
(-0.00200102 5.5261e-05 0)
(-0.00201471 6.21943e-05 0)
(-0.00202893 7.31432e-05 0)
(-0.00204384 8.97486e-05 0)
(-0.00205914 0.000114405 0)
(-0.00207405 0.000150239 0)
(-0.00208858 0.000201518 0)
(-0.00207892 0.00028368 0)
(-0.0020796 0.000362504 0)
(-1.71226e-05 0.000169083 0)
(-6.67337e-05 0.000234002 0)
(-0.000127743 0.000241791 0)
(-0.00018551 0.000241956 0)
(-0.000243909 0.000241187 0)
(-0.000302074 0.000240139 0)
(-0.000359941 0.000238865 0)
(-0.000417472 0.000237368 0)
(-0.000474612 0.000235652 0)
(-0.000531309 0.000233718 0)
(-0.000587509 0.000231568 0)
(-0.000643161 0.000229206 0)
(-0.000698213 0.000226635 0)
(-0.000752615 0.000223857 0)
(-0.000806317 0.000220877 0)
(-0.00085927 0.000217697 0)
(-0.000911427 0.000214324 0)
(-0.000962741 0.00021076 0)
(-0.00101317 0.000207011 0)
(-0.00106266 0.000203081 0)
(-0.00111117 0.000198977 0)
(-0.00115867 0.000194703 0)
(-0.00120511 0.000190267 0)
(-0.00125045 0.000185674 0)
(-0.00129466 0.000180931 0)
(-0.00133769 0.000176046 0)
(-0.00137952 0.000171027 0)
(-0.00142012 0.000165882 0)
(-0.00145945 0.000160621 0)
(-0.00149748 0.000155252 0)
(-0.00153419 0.000149788 0)
(-0.00156956 0.000144239 0)
(-0.00160356 0.000138618 0)
(-0.00163619 0.00013294 0)
(-0.00166741 0.000127221 0)
(-0.00169723 0.000121479 0)
(-0.00172564 0.000115734 0)
(-0.00175262 0.00011001 0)
(-0.0017782 0.000104334 0)
(-0.00180236 9.87392e-05 0)
(-0.00182513 9.32624e-05 0)
(-0.00184652 8.79497e-05 0)
(-0.00186657 8.28565e-05 0)
(-0.0018853 7.80509e-05 0)
(-0.00190277 7.36173e-05 0)
(-0.00191904 6.96622e-05 0)
(-0.00193416 6.63212e-05 0)
(-0.00194823 6.3769e-05 0)
(-0.00196134 6.2234e-05 0)
(-0.00197358 6.20175e-05 0)
(-0.00198505 6.35218e-05 0)
(-0.00199583 6.72878e-05 0)
(-0.00200593 7.40474e-05 0)
(-0.00201524 8.47933e-05 0)
(-0.00202335 0.000100866 0)
(-0.00202937 0.000124032 0)
(-0.00203163 0.000156418 0)
(-0.00202747 0.000200767 0)
(-0.00200602 0.000261965 0)
(-0.00197436 0.000324324 0)
(-1.71885e-05 0.000210436 0)
(-6.70138e-05 0.000290744 0)
(-0.000128294 0.000300352 0)
(-0.000186311 0.000300547 0)
(-0.000244965 0.000299589 0)
(-0.000303382 0.000298286 0)
(-0.000361501 0.000296701 0)
(-0.00041928 0.00029484 0)
(-0.000476667 0.000292705 0)
(-0.000533607 0.000290299 0)
(-0.000590048 0.000287626 0)
(-0.000645937 0.000284688 0)
(-0.000701223 0.00028149 0)
(-0.000755855 0.000278035 0)
(-0.000809783 0.000274328 0)
(-0.000862957 0.000270374 0)
(-0.000915331 0.000266177 0)
(-0.000966856 0.000261745 0)
(-0.00101749 0.000257082 0)
(-0.00106718 0.000252194 0)
(-0.00111589 0.000247089 0)
(-0.00116357 0.000241774 0)
(-0.00121019 0.000236255 0)
(-0.0012557 0.000230542 0)
(-0.00130008 0.000224642 0)
(-0.00134327 0.000218565 0)
(-0.00138524 0.00021232 0)
(-0.00142598 0.000205918 0)
(-0.00146543 0.00019937 0)
(-0.00150358 0.000192688 0)
(-0.00154039 0.000185885 0)
(-0.00157585 0.000178974 0)
(-0.00160993 0.000171973 0)
(-0.00164261 0.000164897 0)
(-0.00167387 0.000157766 0)
(-0.00170371 0.000150601 0)
(-0.0017321 0.000143427 0)
(-0.00175906 0.000136271 0)
(-0.00178456 0.000129166 0)
(-0.00180862 0.000122148 0)
(-0.00183124 0.000115261 0)
(-0.00185242 0.000108557 0)
(-0.0018722 0.000102098 0)
(-0.00189058 9.5959e-05 0)
(-0.0019076 9.02328e-05 0)
(-0.00192328 8.50331e-05 0)
(-0.00193766 8.05022e-05 0)
(-0.00195079 7.68191e-05 0)
(-0.00196268 7.42113e-05 0)
(-0.00197336 7.29688e-05 0)
(-0.00198282 7.34635e-05 0)
(-0.00199098 7.61715e-05 0)
(-0.00199769 8.16993e-05 0)
(-0.00200261 9.08084e-05 0)
(-0.00200511 0.000104428 0)
(-0.0020041 0.000123623 0)
(-0.00199785 0.000149454 0)
(-0.00198363 0.000182839 0)
(-0.00195598 0.000224321 0)
(-0.00191463 0.00026704 0)
(-1.72733e-05 0.000251969 0)
(-6.73583e-05 0.000347745 0)
(-0.000128964 0.000359179 0)
(-0.000187285 0.000359404 0)
(-0.000246247 0.000358257 0)
(-0.000304971 0.000356697 0)
(-0.000363394 0.000354799 0)
(-0.000421475 0.000352571 0)
(-0.000479161 0.000350015 0)
(-0.000536397 0.000347134 0)
(-0.00059313 0.000343934 0)
(-0.000649307 0.000340416 0)
(-0.000704877 0.000336587 0)
(-0.000759788 0.000332451 0)
(-0.00081399 0.000328013 0)
(-0.000867434 0.000323279 0)
(-0.00092007 0.000318255 0)
(-0.000971852 0.000312948 0)
(-0.00102273 0.000307365 0)
(-0.00107267 0.000301513 0)
(-0.00112161 0.0002954 0)
(-0.00116952 0.000289035 0)
(-0.00121636 0.000282427 0)
(-0.00126208 0.000275585 0)
(-0.00130665 0.00026852 0)
(-0.00135004 0.000261241 0)
(-0.00139219 0.000253761 0)
(-0.00143309 0.000246091 0)
(-0.0014727 0.000238244 0)
(-0.00151099 0.000230236 0)
(-0.00154793 0.00022208 0)
(-0.0015835 0.000213793 0)
(-0.00161767 0.000205393 0)
(-0.00165042 0.0001969 0)
(-0.00168173 0.000188336 0)
(-0.0017116 0.000179725 0)
(-0.00173999 0.000171094 0)
(-0.00176691 0.000162474 0)
(-0.00179235 0.000153902 0)
(-0.00181629 0.000145417 0)
(-0.00183875 0.000137068 0)
(-0.00185971 0.000128909 0)
(-0.00187919 0.000121008 0)
(-0.00189719 0.000113443 0)
(-0.00191373 0.000106308 0)
(-0.0019288 9.97184e-05 0)
(-0.00194241 9.3815e-05 0)
(-0.00195455 8.87696e-05 0)
(-0.00196522 8.47939e-05 0)
(-0.00197436 8.21486e-05 0)
(-0.00198188 8.11538e-05 0)
(-0.00198763 8.2199e-05 0)
(-0.00199133 8.57497e-05 0)
(-0.00199254 9.23451e-05 0)
(-0.00199057 0.000102574 0)
(-0.00198438 0.00011701 0)
(-0.00197244 0.000136061 0)
(-0.00195264 0.00015976 0)
(-0.00192185 0.00018732 0)
(-0.00187856 0.000215093 0)
(-1.73754e-05 0.000293732 0)
(-6.7767e-05 0.000405072 0)
(-0.000129754 0.000418344 0)
(-0.000188435 0.000418598 0)
(-0.00024776 0.00041726 0)
(-0.000306846 0.00041544 0)
(-0.000365628 0.000413227 0)
(-0.000424065 0.000410629 0)
(-0.000482103 0.000407649 0)
(-0.000539689 0.00040429 0)
(-0.000596767 0.000400558 0)
(-0.000653284 0.000396457 0)
(-0.000709189 0.000391991 0)
(-0.00076443 0.000387168 0)
(-0.000818956 0.000381993 0)
(-0.000872716 0.000376473 0)
(-0.000925663 0.000370615 0)
(-0.000977747 0.000364427 0)
(-0.00102892 0.000357916 0)
(-0.00107914 0.000351092 0)
(-0.00112837 0.000343963 0)
(-0.00117655 0.00033654 0)
(-0.00122364 0.000328833 0)
(-0.00126961 0.000320852 0)
(-0.00131442 0.00031261 0)
(-0.00135803 0.000304118 0)
(-0.0014004 0.00029539 0)
(-0.00144149 0.000286439 0)
(-0.00148129 0.00027728 0)
(-0.00151974 0.00026793 0)
(-0.00155684 0.000258405 0)
(-0.00159254 0.000248723 0)
(-0.00162682 0.000238906 0)
(-0.00165967 0.000228974 0)
(-0.00169105 0.000218952 0)
(-0.00172095 0.000208866 0)
(-0.00174936 0.000198748 0)
(-0.00177625 0.000188629 0)
(-0.00180162 0.000178548 0)
(-0.00182545 0.000168549 0)
(-0.00184774 0.00015868 0)
(-0.00186848 0.000149001 0)
(-0.00188767 0.000139578 0)
(-0.00190528 0.000130489 0)
(-0.00192132 0.000121829 0)
(-0.00193577 0.000113708 0)
(-0.00194861 0.000106257 0)
(-0.00195981 9.96343e-05 0)
(-0.0019693 9.40265e-05 0)
(-0.001977 8.96551e-05 0)
(-0.00198277 8.67796e-05 0)
(-0.00198639 8.56982e-05 0)
(-0.00198755 8.67421e-05 0)
(-0.00198579 9.02586e-05 0)
(-0.00198045 9.65731e-05 0)
(-0.00197062 0.000105917 0)
(-0.0019551 0.000118304 0)
(-0.00193237 0.000133355 0)
(-0.00190065 0.000149994 0)
(-0.00185878 0.000165743 0)
(-1.74941e-05 0.000335766 0)
(-6.82397e-05 0.000462778 0)
(-0.000130666 0.0004779 0)
(-0.000189762 0.000478184 0)
(-0.000249507 0.000476653 0)
(-0.00030901 0.000474572 0)
(-0.000368206 0.000472041 0)
(-0.000427054 0.000469069 0)
(-0.000485499 0.00046566 0)
(-0.000543487 0.000461819 0)
(-0.000600963 0.000457551 0)
(-0.000657874 0.000452861 0)
(-0.000714165 0.000447754 0)
(-0.000769786 0.000442238 0)
(-0.000824685 0.000436319 0)
(-0.000878812 0.000430006 0)
(-0.000932117 0.000423306 0)
(-0.000984551 0.000416228 0)
(-0.00103607 0.000408781 0)
(-0.00108662 0.000400975 0)
(-0.00113616 0.000392821 0)
(-0.00118465 0.000384329 0)
(-0.00123205 0.000375512 0)
(-0.00127831 0.000366381 0)
(-0.00132339 0.00035695 0)
(-0.00136726 0.000347232 0)
(-0.00140987 0.000337241 0)
(-0.0014512 0.000326995 0)
(-0.00149121 0.000316508 0)
(-0.00152986 0.000305799 0)
(-0.00156713 0.000294886 0)
(-0.00160299 0.00028379 0)
(-0.00163742 0.000272532 0)
(-0.00167037 0.000261137 0)
(-0.00170184 0.00024963 0)
(-0.0017318 0.000238041 0)
(-0.00176023 0.0002264 0)
(-0.00178711 0.000214744 0)
(-0.00181243 0.000203111 0)
(-0.00183616 0.000191547 0)
(-0.00185829 0.000180102 0)
(-0.00187881 0.000168833 0)
(-0.0018977 0.000157808 0)
(-0.00191494 0.000147102 0)
(-0.00193051 0.000136805 0)
(-0.00194437 0.000127018 0)
(-0.00195648 0.000117862 0)
(-0.00196678 0.000109473 0)
(-0.0019752 0.000102011 0)
(-0.0019816 9.56547e-05 0)
(-0.00198584 9.06038e-05 0)
(-0.00198766 8.70733e-05 0)
(-0.00198677 8.52812e-05 0)
(-0.00198271 8.54263e-05 0)
(-0.00197491 8.76491e-05 0)
(-0.00196265 9.19688e-05 0)
(-0.00194501 9.81914e-05 0)
(-0.00192095 0.000105788 0)
(-0.00188947 0.000113714 0)
(-0.0018499 0.000120239 0)
(-1.76292e-05 0.000378112 0)
(-6.87766e-05 0.000520918 0)
(-0.000131702 0.000537904 0)
(-0.000191268 0.000538219 0)
(-0.000251489 0.000536492 0)
(-0.000311465 0.000534147 0)
(-0.000371131 0.000531295 0)
(-0.000430445 0.000527946 0)
(-0.000489353 0.000524105 0)
(-0.000547798 0.000519776 0)
(-0.000605725 0.000514966 0)
(-0.000663081 0.000509681 0)
(-0.000719812 0.000503926 0)
(-0.000775865 0.00049771 0)
(-0.000831188 0.00049104 0)
(-0.00088573 0.000483925 0)
(-0.000939441 0.000476374 0)
(-0.000992272 0.000468397 0)
(-0.00104418 0.000460004 0)
(-0.0010951 0.000451207 0)
(-0.00114501 0.000442016 0)
(-0.00119386 0.000432444 0)
(-0.00124159 0.000422504 0)
(-0.00128818 0.00041221 0)
(-0.00133357 0.000401576 0)
(-0.00137774 0.000390617 0)
(-0.00142063 0.000379349 0)
(-0.00146223 0.00036779 0)
(-0.00150248 0.000355958 0)
(-0.00154137 0.000343871 0)
(-0.00157884 0.00033155 0)
(-0.00161489 0.000319017 0)
(-0.00164947 0.000306295 0)
(-0.00168257 0.000293411 0)
(-0.00171414 0.000280391 0)
(-0.00174418 0.000267265 0)
(-0.00177265 0.000254068 0)
(-0.00179954 0.000240834 0)
(-0.00182482 0.000227604 0)
(-0.00184846 0.000214424 0)
(-0.00187046 0.000201344 0)
(-0.00189078 0.000188419 0)
(-0.0019094 0.000175715 0)
(-0.00192628 0.000163302 0)
(-0.00194141 0.000151264 0)
(-0.00195472 0.000139693 0)
(-0.00196616 0.000128693 0)
(-0.00197566 0.00011838 0)
(-0.00198312 0.000108885 0)
(-0.00198841 0.000100346 0)
(-0.00199135 9.29105e-05 0)
(-0.00199171 8.67225e-05 0)
(-0.00198919 8.19119e-05 0)
(-0.00198342 7.85704e-05 0)
(-0.0019739 7.67181e-05 0)
(-0.00196008 7.62549e-05 0)
(-0.00194128 7.68979e-05 0)
(-0.00191685 7.81061e-05 0)
(-0.0018862 7.89792e-05 0)
(-0.00184901 7.8276e-05 0)
(-1.77807e-05 0.000420807 0)
(-6.93783e-05 0.000579547 0)
(-0.000132863 0.000598414 0)
(-0.000192955 0.000598758 0)
(-0.000253709 0.000596834 0)
(-0.000314215 0.000594222 0)
(-0.000374407 0.000591045 0)
(-0.000434244 0.000587314 0)
(-0.000493669 0.000583036 0)
(-0.000552626 0.000578215 0)
(-0.000611059 0.000572857 0)
(-0.000668914 0.000566969 0)
(-0.000726136 0.000560559 0)
(-0.000782672 0.000553635 0)
(-0.00083847 0.000546206 0)
(-0.000893478 0.00053828 0)
(-0.000947645 0.000529869 0)
(-0.00100092 0.000520983 0)
(-0.00105326 0.000511633 0)
(-0.00110461 0.000501831 0)
(-0.00115493 0.000491591 0)
(-0.00120417 0.000480926 0)
(-0.00125228 0.00046985 0)
(-0.00129924 0.000458378 0)
(-0.00134498 0.000446526 0)
(-0.00138948 0.000434311 0)
(-0.0014327 0.000421749 0)
(-0.00147459 0.000408859 0)
(-0.00151513 0.000395661 0)
(-0.00155427 0.000382176 0)
(-0.00159199 0.000368425 0)
(-0.00162825 0.000354432 0)
(-0.00166302 0.000340221 0)
(-0.00169628 0.000325819 0)
(-0.00172799 0.000311256 0)
(-0.00175812 0.000296561 0)
(-0.00178666 0.00028177 0)
(-0.00181357 0.000266918 0)
(-0.00183884 0.000252047 0)
(-0.00186242 0.0002372 0)
(-0.0018843 0.000222427 0)
(-0.00190444 0.000207783 0)
(-0.00192282 0.000193327 0)
(-0.00193939 0.000179126 0)
(-0.00195412 0.000165254 0)
(-0.00196694 0.000151794 0)
(-0.00197779 0.000138833 0)
(-0.00198659 0.000126468 0)
(-0.00199323 0.000114802 0)
(-0.00199758 0.000103938 0)
(-0.00199946 9.39782e-05 0)
(-0.00199866 8.50123e-05 0)
(-0.00199492 7.71048e-05 0)
(-0.0019879 7.02751e-05 0)
(-0.00197723 6.44714e-05 0)
(-0.00196247 5.95355e-05 0)
(-0.00194316 5.51628e-05 0)
(-0.00191887 5.08517e-05 0)
(-0.0018893 4.58832e-05 0)
(-0.00185432 3.93394e-05 0)
(-1.79488e-05 0.000463894 0)
(-7.00455e-05 0.00063872 0)
(-0.000134149 0.000659486 0)
(-0.000194826 0.00065986 0)
(-0.00025617 0.000657736 0)
(-0.000317263 0.000654853 0)
(-0.000378039 0.000651347 0)
(-0.000438454 0.000647231 0)
(-0.000498453 0.000642509 0)
(-0.000557977 0.000637189 0)
(-0.000616971 0.000631277 0)
(-0.000675379 0.00062478 0)
(-0.000733146 0.000617707 0)
(-0.000790218 0.000610066 0)
(-0.000846543 0.000601867 0)
(-0.000902066 0.000593121 0)
(-0.000956738 0.000583838 0)
(-0.00101051 0.000574031 0)
(-0.00106333 0.000563712 0)
(-0.00111515 0.000552894 0)
(-0.00116592 0.000541592 0)
(-0.0012156 0.000529819 0)
(-0.00126414 0.000517592 0)
(-0.0013115 0.000504927 0)
(-0.00135764 0.00049184 0)
(-0.00140251 0.00047835 0)
(-0.00144608 0.000464475 0)
(-0.00148831 0.000450236 0)
(-0.00152916 0.000435652 0)
(-0.0015686 0.000420747 0)
(-0.00160659 0.000405543 0)
(-0.00164309 0.000390064 0)
(-0.00167809 0.000374337 0)
(-0.00171153 0.000358389 0)
(-0.0017434 0.000342251 0)
(-0.00177367 0.000325953 0)
(-0.0018023 0.000309531 0)
(-0.00182926 0.000293021 0)
(-0.00185453 0.000276463 0)
(-0.00187808 0.000259901 0)
(-0.00189988 0.000243381 0)
(-0.00191988 0.000226956 0)
(-0.00193805 0.000210682 0)
(-0.00195436 0.000194618 0)
(-0.00196874 0.000178832 0)
(-0.00198114 0.000163393 0)
(-0.00199149 0.000148376 0)
(-0.00199969 0.000133858 0)
(-0.00200565 0.000119919 0)
(-0.00200923 0.000106632 0)
(-0.00201027 9.4064e-05 0)
(-0.00200858 8.22632e-05 0)
(-0.00200393 7.12491e-05 0)
(-0.00199605 6.09961e-05 0)
(-0.00198464 5.14135e-05 0)
(-0.00196938 4.23226e-05 0)
(-0.00194997 3.34305e-05 0)
(-0.00192613 2.42984e-05 0)
(-0.00189771 1.43789e-05 0)
(-0.00186469 3.00651e-06 0)
(-1.81335e-05 0.000507411 0)
(-7.07788e-05 0.000698494 0)
(-0.000135563 0.000721178 0)
(-0.000196881 0.000721582 0)
(-0.000258875 0.000719255 0)
(-0.000320614 0.000716099 0)
(-0.00038203 0.000712259 0)
(-0.000443082 0.000707752 0)
(-0.00050371 0.000702581 0)
(-0.000563858 0.000696756 0)
(-0.000623468 0.000690281 0)
(-0.000682484 0.000683167 0)
(-0.00074085 0.000675421 0)
(-0.000798512 0.000667054 0)
(-0.000855415 0.000658075 0)
(-0.000911506 0.000648497 0)
(-0.000966734 0.000638332 0)
(-0.00102105 0.000627592 0)
(-0.00107439 0.00061629 0)
(-0.00112673 0.000604442 0)
(-0.001178 0.000592062 0)
(-0.00122816 0.000579167 0)
(-0.00127718 0.000565772 0)
(-0.00132499 0.000551896 0)
(-0.00137156 0.000537557 0)
(-0.00141685 0.000522774 0)
(-0.00146081 0.000507567 0)
(-0.00150341 0.000491956 0)
(-0.00154462 0.000475965 0)
(-0.00158438 0.000459616 0)
(-0.00162267 0.000442934 0)
(-0.00165945 0.000425944 0)
(-0.0016947 0.000408673 0)
(-0.00172836 0.00039115 0)
(-0.00176042 0.000373404 0)
(-0.00179084 0.00035547 0)
(-0.00181959 0.00033738 0)
(-0.00184664 0.000319171 0)
(-0.00187196 0.000300883 0)
(-0.0018955 0.000282558 0)
(-0.00191724 0.00026424 0)
(-0.00193714 0.000245978 0)
(-0.00195516 0.000227824 0)
(-0.00197124 0.000209833 0)
(-0.00198534 0.000192061 0)
(-0.0019974 0.00017457 0)
(-0.00200733 0.00015742 0)
(-0.00201505 0.000140673 0)
(-0.00202046 0.000124388 0)
(-0.00202343 0.000108615 0)
(-0.00202383 9.33949e-05 0)
(-0.00202148 7.87457e-05 0)
(-0.00201618 6.46581e-05 0)
(-0.00200774 5.10805e-05 0)
(-0.0019959 3.79059e-05 0)
(-0.00198045 2.4956e-05 0)
(-0.00196118 1.19637e-05 0)
(-0.00193792 -1.41179e-06 0)
(-0.00191059 -1.56079e-05 0)
(-0.00187925 -3.11149e-05 0)
(-1.83352e-05 0.000551401 0)
(-7.15792e-05 0.000758926 0)
(-0.000137106 0.00078355 0)
(-0.000199125 0.000783983 0)
(-0.000261827 0.000781452 0)
(-0.00032427 0.000778017 0)
(-0.000386387 0.000773839 0)
(-0.000448132 0.000768935 0)
(-0.000509449 0.000763309 0)
(-0.000570277 0.00075697 0)
(-0.00063056 0.000749926 0)
(-0.000690239 0.000742185 0)
(-0.000749259 0.000733757 0)
(-0.000807564 0.000724653 0)
(-0.000865099 0.000714883 0)
(-0.00092181 0.000704462 0)
(-0.000977644 0.0006934 0)
(-0.00103255 0.000681713 0)
(-0.00108648 0.000669415 0)
(-0.00113937 0.000656521 0)
(-0.00119119 0.000643048 0)
(-0.00124189 0.000629013 0)
(-0.00129141 0.000614434 0)
(-0.00133972 0.000599329 0)
(-0.00138676 0.000583718 0)
(-0.0014325 0.000567621 0)
(-0.0014769 0.00055106 0)
(-0.00151992 0.000534057 0)
(-0.0015615 0.000516635 0)
(-0.00160163 0.000498819 0)
(-0.00164026 0.000480633 0)
(-0.00167736 0.000462104 0)
(-0.00171288 0.00044326 0)
(-0.0017468 0.000424131 0)
(-0.00177908 0.000404747 0)
(-0.00180969 0.00038514 0)
(-0.00183859 0.000365346 0)
(-0.00186576 0.000345399 0)
(-0.00189115 0.000325339 0)
(-0.00191473 0.000305206 0)
(-0.00193645 0.000285042 0)
(-0.00195629 0.000264892 0)
(-0.0019742 0.000244804 0)
(-0.00199012 0.000224827 0)
(-0.002004 0.00020501 0)
(-0.00201578 0.000185406 0)
(-0.00202538 0.000166063 0)
(-0.00203272 0.000147031 0)
(-0.00203771 0.00012835 0)
(-0.00204022 0.000110055 0)
(-0.00204014 9.21663e-05 0)
(-0.00203732 7.46831e-05 0)
(-0.0020316 5.75783e-05 0)
(-0.0020228 4.07884e-05 0)
(-0.00201077 2.42041e-05 0)
(-0.00199533 7.65713e-06 0)
(-0.00197633 -9.07221e-06 0)
(-0.0019537 -2.6261e-05 0)
(-0.00192741 -4.42575e-05 0)
(-0.00189755 -6.3441e-05 0)
(-1.8554e-05 0.000595905 0)
(-7.24477e-05 0.000820074 0)
(-0.000138781 0.000846662 0)
(-0.000201559 0.000847124 0)
(-0.00026503 0.000844384 0)
(-0.000328238 0.000840666 0)
(-0.000391113 0.000836146 0)
(-0.000453612 0.000830838 0)
(-0.000515674 0.00082475 0)
(-0.000577241 0.00081789 0)
(-0.000638254 0.000810267 0)
(-0.000698653 0.00080189 0)
(-0.000758383 0.000792769 0)
(-0.000817386 0.000782916 0)
(-0.000875606 0.000772344 0)
(-0.00093299 0.000761065 0)
(-0.000989483 0.000749094 0)
(-0.00104503 0.000736445 0)
(-0.00109959 0.000723135 0)
(-0.0011531 0.000709179 0)
(-0.00120551 0.000694596 0)
(-0.00125678 0.000679403 0)
(-0.00130686 0.00066362 0)
(-0.0013557 0.000647267 0)
(-0.00140327 0.000630364 0)
(-0.0014495 0.000612933 0)
(-0.00149438 0.000594996 0)
(-0.00153784 0.000576577 0)
(-0.00157985 0.0005577 0)
(-0.00162038 0.00053839 0)
(-0.00165939 0.000518674 0)
(-0.00169683 0.000498579 0)
(-0.00173267 0.000478133 0)
(-0.00176688 0.000457367 0)
(-0.00179941 0.000436311 0)
(-0.00183024 0.000414999 0)
(-0.00185934 0.000393463 0)
(-0.00188665 0.000371741 0)
(-0.00191215 0.000349868 0)
(-0.0019358 0.000327884 0)
(-0.00195756 0.000305829 0)
(-0.00197738 0.000283744 0)
(-0.00199522 0.000261674 0)
(-0.00201104 0.000239661 0)
(-0.00202476 0.000217749 0)
(-0.00203634 0.000195981 0)
(-0.0020457 0.000174399 0)
(-0.00205276 0.000153039 0)
(-0.00205743 0.000131932 0)
(-0.00205962 0.000111097 0)
(-0.0020592 9.05428e-05 0)
(-0.00205607 7.02559e-05 0)
(-0.00205008 5.02007e-05 0)
(-0.00204111 3.03101e-05 0)
(-0.00202903 1.04782e-05 0)
(-0.00201373 -9.43542e-06 0)
(-0.0019951 -2.96169e-05 0)
(-0.00197311 -5.03037e-05 0)
(-0.00194777 -7.17536e-05 0)
(-0.00191917 -9.42473e-05 0)
(-1.87903e-05 0.000640964 0)
(-7.33854e-05 0.000881996 0)
(-0.000140588 0.000910573 0)
(-0.000204188 0.000911065 0)
(-0.000268488 0.000908112 0)
(-0.000332521 0.000904108 0)
(-0.000396216 0.000899238 0)
(-0.000459528 0.000893521 0)
(-0.000522396 0.000886963 0)
(-0.00058476 0.000879573 0)
(-0.00064656 0.000871362 0)
(-0.000707737 0.000862338 0)
(-0.000768233 0.000852513 0)
(-0.000827989 0.000841899 0)
(-0.00088695 0.00083051 0)
(-0.00094506 0.000818361 0)
(-0.00100226 0.000805465 0)
(-0.00105851 0.000791839 0)
(-0.00111374 0.000777499 0)
(-0.00116791 0.000762465 0)
(-0.00122097 0.000746753 0)
(-0.00127286 0.000730384 0)
(-0.00132355 0.000713377 0)
(-0.00137297 0.000695755 0)
(-0.00142109 0.000677538 0)
(-0.00146787 0.00065875 0)
(-0.00151326 0.000639414 0)
(-0.00155721 0.000619554 0)
(-0.00159969 0.000599197 0)
(-0.00164066 0.000578368 0)
(-0.00168007 0.000557094 0)
(-0.0017179 0.000535404 0)
(-0.00175409 0.000513326 0)
(-0.00178862 0.000490892 0)
(-0.00182145 0.000468132 0)
(-0.00185254 0.00044508 0)
(-0.00188185 0.000421768 0)
(-0.00190935 0.000398232 0)
(-0.001935 0.000374508 0)
(-0.00195876 0.000350633 0)
(-0.00198059 0.000326645 0)
(-0.00200045 0.000302583 0)
(-0.00201828 0.000278486 0)
(-0.00203404 0.000254393 0)
(-0.00204768 0.000230344 0)
(-0.00205913 0.000206374 0)
(-0.00206832 0.000182516 0)
(-0.00207519 0.0001588 0)
(-0.00207965 0.000135247 0)
(-0.00208161 0.000111867 0)
(-0.00208098 8.86607e-05 0)
(-0.00207766 6.56086e-05 0)
(-0.00207154 4.26717e-05 0)
(-0.00206253 1.97853e-05 0)
(-0.00205051 -3.14744e-06 0)
(-0.00203542 -2.6242e-05 0)
(-0.0020172 -4.96598e-05 0)
(-0.00199584 -7.35832e-05 0)
(-0.00197135 -9.82142e-05 0)
(-0.00194385 -0.000123762 0)
(-1.90442e-05 0.000686623 0)
(-7.43932e-05 0.000944752 0)
(-0.000142532 0.000975347 0)
(-0.000207013 0.000975867 0)
(-0.000272205 0.000972699 0)
(-0.000337125 0.000968403 0)
(-0.000401701 0.000963178 0)
(-0.000465887 0.000957043 0)
(-0.000529622 0.000950007 0)
(-0.000592843 0.000942079 0)
(-0.00065549 0.000933268 0)
(-0.000717502 0.000923586 0)
(-0.000778821 0.000913045 0)
(-0.000839388 0.000901657 0)
(-0.000899145 0.000889438 0)
(-0.000958036 0.000876402 0)
(-0.001016 0.000862565 0)
(-0.001073 0.000847945 0)
(-0.00112896 0.000832559 0)
(-0.00118384 0.000816427 0)
(-0.00123759 0.000799567 0)
(-0.00129015 0.000782001 0)
(-0.00134149 0.00076375 0)
(-0.00139154 0.000744837 0)
(-0.00144027 0.000725283 0)
(-0.00148763 0.000705115 0)
(-0.00153357 0.000684355 0)
(-0.00157806 0.00066303 0)
(-0.00162104 0.000641165 0)
(-0.00166249 0.000618789 0)
(-0.00170235 0.00059593 0)
(-0.00174059 0.000572615 0)
(-0.00177718 0.000548876 0)
(-0.00181207 0.000524742 0)
(-0.00184523 0.000500246 0)
(-0.00187661 0.000475419 0)
(-0.00190618 0.000450296 0)
(-0.00193391 0.000424911 0)
(-0.00195975 0.000399298 0)
(-0.00198366 0.000373494 0)
(-0.00200561 0.000347534 0)
(-0.00202554 0.000321456 0)
(-0.00204341 0.000295294 0)
(-0.00205918 0.000269084 0)
(-0.00207278 0.000242861 0)
(-0.00208417 0.000216655 0)
(-0.00209328 0.000190495 0)
(-0.00210003 0.000164402 0)
(-0.00210437 0.000138392 0)
(-0.0021062 0.000112471 0)
(-0.00210546 8.6632e-05 0)
(-0.00210205 6.08553e-05 0)
(-0.0020959 3.51016e-05 0)
(-0.00208693 9.30969e-06 0)
(-0.00207506 -1.6594e-05 0)
(-0.00206024 -4.27201e-05 0)
(-0.00204244 -6.91927e-05 0)
(-0.00202166 -9.61561e-05 0)
(-0.00199795 -0.000123766 0)
(-0.00197138 -0.000152178 0)
(-1.93161e-05 0.000732924 0)
(-7.54726e-05 0.0010084 0)
(-0.000144613 0.00104105 0)
(-0.000210039 0.00104159 0)
(-0.000276187 0.00103821 0)
(-0.000342057 0.00103361 0)
(-0.000407576 0.00102803 0)
(-0.000472698 0.00102147 0)
(-0.00053736 0.00101394 0)
(-0.000601499 0.00100547 0)
(-0.000665053 0.000996045 0)
(-0.00072796 0.000985693 0)
(-0.000790161 0.000974422 0)
(-0.000851596 0.000962247 0)
(-0.000912205 0.000949182 0)
(-0.000971933 0.000935244 0)
(-0.00103072 0.000920449 0)
(-0.00108852 0.000904817 0)
(-0.00114526 0.000888366 0)
(-0.0012009 0.000871115 0)
(-0.00125539 0.000853087 0)
(-0.00130868 0.000834303 0)
(-0.00136071 0.000814785 0)