0 	-1.44871e-07
1.57135 	-0.000443856
3.1427 	-0.000669157
4.71405 	-0.00313797
6.28539 	-0.00774265
7.85674 	-0.0106997
9.42809 	-0.00948189
10.9994 	-0.00530088
12.5708 	0.0185013
14.1421 	0.055491
