/*--------------------------------*- C++ -*----------------------------------*\
  =========                 |
  \\      /  F ield         | OpenFOAM: The Open Source CFD Toolbox
   \\    /   O peration     | Website:  https://openfoam.org
    \\  /    A nd           | Version:  8
     \\/     M anipulation  |
\*---------------------------------------------------------------------------*/
FoamFile
{
    version     2.0;
    format      ascii;
    class       volScalarField;
    location    "79";
    object      p;
}
// * * * * * * * * * * * * * * * * * * * * * * * * * * * * * * * * * * * * * //

dimensions      [0 2 -2 0 0 0 0];

internalField   nonuniform List<scalar> 
12504
(
0.114551
0.111789
0.105989
0.0971628
0.0855927
0.0716453
0.0557254
0.0382907
0.019849
0.000930776
-0.0179453
-0.0363037
-0.0537358
-0.0699132
-0.0845896
-0.0975919
-0.108806
-0.118159
-0.125608
-0.131132
-0.134721
-0.136383
-0.136143
-0.13405
-0.13019
-0.124692
-0.11774
-0.109565
-0.100443
-0.090679
-0.0805886
-0.0704809
-0.0606273
-0.0512605
-0.0425427
-0.0345806
-0.0274075
-0.0209949
-0.0152899
-0.0101358
-0.00552322
-0.00113565
0.00270131
0.00664897
0.00944719
0.012659
0.0130165
0.0142141
0.0094798
0.0068873
0.11654
0.113713
0.107771
0.0987307
0.086887
0.0726202
0.0563515
0.0385578
0.0197675
0.000530492
-0.0186188
-0.0371951
-0.0547872
-0.0710713
-0.0858101
-0.0988423
-0.110064
-0.119414
-0.126857
-0.132373
-0.135957
-0.137617
-0.137374
-0.135273
-0.131393
-0.125862
-0.118859
-0.110616
-0.101407
-0.0915445
-0.081346
-0.0711267
-0.0611624
-0.05169
-0.0428738
-0.0348227
-0.0275695
-0.021085
-0.0153154
-0.0101
-0.00543293
-0.000984291
0.00289859
0.0069171
0.00973757
0.0130331
0.0133402
0.0146185
0.00968372
0.00712549
0.120574
0.117609
0.111377
0.101902
0.0894999
0.0745803
0.0575988
0.0390718
0.0195703
-0.000315308
-0.0200179
-0.0390323
-0.0569428
-0.0734355
-0.0882934
-0.101379
-0.112613
-0.121953
-0.129378
-0.13488
-0.138457
-0.140114
-0.139868
-0.137754
-0.133841
-0.128246
-0.121143
-0.112761
-0.103379
-0.0933139
-0.0828948
-0.0724472
-0.0622565
-0.0525685
-0.0435523
-0.0353201
-0.0279046
-0.0212749
-0.0153754
-0.0100374
-0.00525939
-0.000692232
0.00329095
0.00743717
0.0103277
0.0137504
0.0140176
0.0153605
0.0101508
0.00747452
0.126748
0.12357
0.116891
0.106743
0.0934755
0.077543
0.0594546
0.0397892
0.0191857
-0.00170052
-0.0222498
-0.0419259
-0.0603079
-0.0771005
-0.0921208
-0.105272
-0.116511
-0.125826
-0.13322
-0.1387
-0.14227
-0.143932
-0.143692
-0.14157
-0.137615
-0.131932
-0.124681
-0.11609
-0.106441
-0.0960645
-0.0853026
-0.0744996
-0.063957
-0.0539343
-0.0446091
-0.0360982
-0.028435
-0.0215843
-0.0154888
-0.00996571
-0.00502175
-0.000276105
0.00385925
0.00819504
0.0112021
0.0148002
0.0150339
0.0164286
0.0108668
0.00792942
0.135217
0.131742
0.124443
0.113359
0.0988844
0.0815361
0.061898
0.0406388
0.0184963
-0.00377836
-0.0254887
-0.0460545
-0.0650513
-0.0822162
-0.0974206
-0.110627
-0.121847
-0.131112
-0.138457
-0.143908
-0.147478
-0.149162
-0.148952
-0.146842
-0.142854
-0.137066
-0.129624
-0.120751
-0.110736
-0.0999234
-0.0886806
-0.0773778
-0.0663408
-0.0558493
-0.0460938
-0.0371973
-0.0291948
-0.0220428
-0.0156844
-0.00991128
-0.00474732
0.000238418
0.00458058
0.00916626
0.0123505
0.016155
0.0163939
0.0177784
0.0118435
0.0084383
0.146196
0.142331
0.134215
0.121896
0.105824
0.0865951
0.0648937
0.0415115
0.0173253
-0.00677812
-0.0299929
-0.0516797
-0.0714166
-0.0889957
-0.104372
-0.117595
-0.128749
-0.137921
-0.145188
-0.150605
-0.154195
-0.155938
-0.155806
-0.153753
-0.149759
-0.143867
-0.136198
-0.126968
-0.116472
-0.10508
-0.0931936
-0.0812198
-0.0695201
-0.0584026
-0.048077
-0.0386734
-0.0302309
-0.0226907
-0.0160003
-0.00991007
-0.0044729
0.000816421
0.00542525
0.0103194
0.0137646
0.0177819
0.0181103
0.0193596
0.0130927
0.00894622
0.159967
0.155603
0.146446
0.132546
0.114421
0.0927632
0.0683848
0.0422453
0.0154137
-0.0110318
-0.0361315
-0.0591696
-0.0797404
-0.0977283
-0.113215
-0.126372
-0.137379
-0.146394
-0.153548
-0.158929
-0.162574
-0.164441
-0.164474
-0.162564
-0.158628
-0.152655
-0.144732
-0.135062
-0.123953
-0.111809
-0.0990772
-0.0862213
-0.0736521
-0.0617175
-0.0506546
-0.0406016
-0.0316047
-0.0235806
-0.0164856
-0.0100085
-0.00424516
0.0014117
0.00635658
0.0116177
0.0154349
0.0196487
0.020193
0.0211483
0.0146073
0.00945296
0.176887
0.1719
0.161443
0.145559
0.124839
0.100089
0.0722822
0.0426024
0.0123855
-0.0170172
-0.0444278
-0.0690343
-0.0904777
-0.108795
-0.124261
-0.137211
-0.147946
-0.156709
-0.1637
-0.169055
-0.17282
-0.174925
-0.175268
-0.173646
-0.16988
-0.163887
-0.1557
-0.145501
-0.133616
-0.120497
-0.106663
-0.092654
-0.0789521
-0.0659603
-0.0539538
-0.0430801
-0.033395
-0.024779
-0.0172008
-0.010266
-0.00412199
0.0019635
0.0073279
0.0130177
0.0173387
0.0217242
0.0226168
0.0231669
0.0163511
0.0100557
0.197406
0.19165
0.179596
0.161249
0.137285
0.108627
0.076448
0.0422344
0.00769219
-0.0254267
-0.0556272
-0.0819816
-0.104238
-0.122693
-0.137903
-0.150428
-0.160708
-0.169086
-0.175851
-0.181203
-0.185186
-0.187744
-0.188633
-0.187531
-0.184127
-0.178227
-0.169787
-0.158958
-0.146086
-0.131699
-0.116418
-0.100894
-0.0857128
-0.0713526
-0.0581405
-0.0462341
-0.0357
-0.0263694
-0.0182196
-0.0107581
-0.00417558
0.00239475
0.00827435
0.0144583
0.0194071
0.023949
0.0252603
0.025409
0.0182185
0.0108878
0.222072
0.21538
0.201387
0.180011
0.152018
0.118429
0.0806682
0.0406284
0.000532188
-0.0372671
-0.0708014
-0.099005
-0.121848
-0.140064
-0.15464
-0.166415
-0.175979
-0.18379
-0.190249
-0.195654
-0.200076
-0.203385
-0.20519
-0.204985
-0.202256
-0.196644
-0.187994
-0.176407
-0.162266
-0.146206
-0.129
-0.111464
-0.0943307
-0.0781875
-0.063428
-0.0502218
-0.0386408
-0.0284539
-0.0196314
-0.0115804
-0.00449967
0.00260668
0.00910201
0.0158388
0.0214694
0.0261454
0.0278029
0.0276291
0.0199053
0.0118855
0.251551
0.243733
0.22742
0.202343
0.169369
0.129533
0.0846012
0.0370016
-0.0102918
-0.0540073
-0.0914811
-0.121492
-0.144429
-0.161759
-0.175108
-0.185658
-0.194134
-0.201115
-0.207176
-0.212749
-0.217945
-0.222471
-0.225781
-0.227073
-0.225537
-0.220555
-0.211788
-0.199275
-0.183463
-0.165151
-0.145339
-0.125085
-0.105343
-0.0868501
-0.0700881
-0.0552383
-0.0423636
-0.0311546
-0.0215449
-0.0128517
-0.00521741
0.00247035
0.00966341
0.016963
0.0231705
0.0278624
0.0296036
0.0291431
0.0208636
0.0126404
0.286636
0.277491
0.258438
0.22888
0.189771
0.141965
0.0877076
0.0301029
-0.0266714
-0.0778654
-0.11985
-0.151316
-0.173432
-0.188855
-0.200117
-0.20876
-0.215591
-0.221343
-0.226871
-0.23279
-0.239262
-0.245792
-0.251569
-0.255263
-0.255706
-0.25192
-0.243255
-0.229624
-0.211568
-0.190155
-0.166743
-0.142761
-0.119477
-0.0978491
-0.0784666
-0.0615232
-0.0470422
-0.0346127
-0.0240931
-0.0147199
-0.00648523
0.00182022
0.00971169
0.0174369
0.0238755
0.0282616
0.0297126
0.0289796
0.020597
0.0127143
0.32825
0.317588
0.295357
0.260442
0.213804
0.155746
0.0891959
0.0179646
-0.0517169
-0.112446
-0.159215
-0.191005
-0.210586
-0.222542
-0.230538
-0.236329
-0.240677
-0.244561
-0.249315
-0.255812
-0.264202
-0.27385
-0.283794
-0.291389
-0.295042
-0.293325
-0.285152
-0.27023
-0.2492
-0.223495
-0.195036
-0.165845
-0.137688
-0.11183
-0.0889914
-0.0693634
-0.0528796
-0.03899
-0.0274374
-0.0173613
-0.00849532
0.00041354
0.0088372
0.0165897
0.0226394
0.0262242
0.0271738
0.0264051
0.0189309
0.0120124
0.377444
0.365135
0.339285
0.298104
0.242232
0.170895
0.0879119
-0.00233237
-0.0902974
-0.163711
-0.21503
-0.244309
-0.257956
-0.263903
-0.266985
-0.268589
-0.269167
-0.270168
-0.273709
-0.281065
-0.292179
-0.305954
-0.322404
-0.336343
-0.345463
-0.347505
-0.3407
-0.324466
-0.299613
-0.268104
-0.232648
-0.196174
-0.161243
-0.129613
-0.102173
-0.0790838
-0.0600963
-0.0444636
-0.0317652
-0.0209781
-0.0114795
-0.00209922
0.00642703
0.0135485
0.0183587
0.0207284
0.0213755
0.0211664
0.0157736
0.0106068
0.43536
0.421416
0.391571
0.343294
0.275988
0.187316
0.0817501
-0.0356743
-0.149387
-0.240253
-0.295487
-0.316671
-0.317978
-0.313588
-0.309246
-0.304635
-0.299396
-0.2959
-0.297388
-0.305698
-0.320783
-0.342131
-0.364805
-0.387697
-0.405609
-0.414558
-0.411513
-0.39512
-0.366126
-0.327205
-0.282328
-0.235869
-0.191642
-0.152173
-0.118615
-0.0910504
-0.0689271
-0.0512244
-0.037281
-0.0257832
-0.0157323
-0.00622953
0.00166708
0.00714163
0.0100614
0.0111372
0.0120225
0.013174
0.0108367
0.00844587
0.503175
0.487864
0.453935
0.398003
0.31632
0.204599
0.066296
-0.0926903
-0.239703
-0.351384
-0.40756
-0.411683
-0.391116
-0.370232
-0.354886
-0.341087
-0.327121
-0.316943
-0.314963
-0.323309
-0.34205
-0.369647
-0.402767
-0.437281
-0.467522
-0.487704
-0.492847
-0.480049
-0.449147
-0.402899
-0.346666
-0.287149
-0.230443
-0.180481
-0.138886
-0.105593
-0.0795829
-0.059461
-0.0441859
-0.0319992
-0.0216221
-0.0126057
-0.00629801
-0.00342074
-0.00284271
-0.00283852
-0.00107478
0.00225269
0.00380435
0.00544234
0.581972
0.56594
0.528701
0.465236
0.365697
0.222322
0.0337586
-0.192478
-0.383618
-0.505902
-0.547283
-0.519996
-0.468075
-0.425759
-0.396692
-0.371348
-0.346711
-0.328731
-0.322341
-0.329502
-0.350476
-0.384075
-0.427236
-0.474111
-0.518305
-0.552854
-0.571023
-0.567736
-0.540702
-0.491216
-0.424895
-0.350893
-0.278825
-0.215403
-0.163476
-0.122953
-0.0922072
-0.0693173
-0.0526385
-0.0398535
-0.0295766
-0.0218936
-0.018242
-0.0187414
-0.0206385
-0.0212951
-0.0180075
-0.0116844
-0.00535968
0.00165194
0.672366
0.656867
0.618884
0.549631
0.430114
0.243218
-0.0284244
-0.348854
-0.537797
-0.655218
-0.663965
-0.599403
-0.518629
-0.461326
-0.424788
-0.391801
-0.359343
-0.335718
-0.325819
-0.331118
-0.352387
-0.389233
-0.438922
-0.496017
-0.552976
-0.601592
-0.633997
-0.643977
-0.626768
-0.58076
-0.509646
-0.42348
-0.33555
-0.256721
-0.192412
-0.143141
-0.106813
-0.0808367
-0.0627156
-0.0495575
-0.0400259
-0.0346811
-0.0346864
-0.0390577
-0.0433096
-0.0441234
-0.0386124
-0.0284213
-0.0163697
-0.00274061
0.77381
0.761101
0.72753
0.657439
0.521739
0.280621
-0.0439071
-0.432852
-0.729219
-0.825208
-0.797241
-0.662427
-0.544968
-0.478028
-0.431684
-0.397723
-0.367211
-0.345167
-0.334953
-0.338891
-0.359162
-0.39664
-0.449511
-0.512741
-0.578461
-0.637703
-0.682192
-0.704431
-0.698608
-0.660547
-0.59057
-0.497252
-0.396023
-0.302093
-0.224569
-0.165596
-0.123116
-0.0938663
-0.0743718
-0.0612631
-0.053306
-0.0513377
-0.0557911
-0.0642414
-0.0705507
-0.0709365
-0.0624178
-0.0474621
-0.0287611
-0.00751277
0.88369
0.877467
0.855586
0.795827
0.657618
0.389372
-0.0272744
-0.474453
-0.814688
-0.557396
-0.480278
-0.439971
-0.408593
-0.38467
-0.365684
-0.355774
-0.358078
-0.376044
-0.412017
-0.465358
-0.531542
-0.602391
-0.668393
-0.720591
-0.751514
-0.754869
-0.725095
-0.659537
-0.563921
-0.453705
-0.347225
-0.257435
-0.188935
-0.140361
-0.107958
-0.087399
-0.0749975
-0.0695562
-0.0719018
-0.081313
-0.0938067
-0.101742
-0.101052
-0.0886963
-0.0681203
-0.0419773
-0.0124398
0.996791
1.00169
0.999202
0.971046
0.838655
0.549483
0.0842836
-0.472684
-0.440915
-0.424444
-0.408411
-0.393744
-0.385024
-0.385831
-0.400857
-0.433852
-0.485329
-0.55167
-0.624362
-0.693649
-0.750142
-0.78615
-0.795526
-0.772052
-0.711386
-0.616629
-0.501878
-0.386815
-0.287427
-0.210971
-0.157231
-0.12231
-0.101383
-0.0905802
-0.0886127
-0.0960035
-0.110588
-0.126889
-0.135915
-0.133472
-0.116464
-0.089515
-0.0553608
-0.0172857
1.10546
1.12437
1.15226
1.16975
1.06904
0.790609
-0.438729
-0.439456
-0.435542
-0.42638
-0.419587
-0.419802
-0.431863
-0.460573
-0.507241
-0.570275
-0.640575
-0.709363
-0.76693
-0.805363
-0.817995
-0.798597
-0.742112
-0.649991
-0.534611
-0.415538
-0.310518
-0.228981
-0.171946
-0.135812
-0.11567
-0.107526
-0.109901
-0.122803
-0.142513
-0.162224
-0.171694
-0.166823
-0.144432
-0.110551
-0.0681557
-0.0218
1.19838
1.233
1.2951
1.36655
1.31866
1.11248
-0.459049
-0.466399
-0.462711
-0.459469
-0.460569
-0.470371
-0.493129
-0.530672
-0.586665
-0.648204
-0.711224
-0.765871
-0.803723
-0.817441
-0.800516
-0.747647
-0.659523
-0.547017
-0.428731
-0.322885
-0.240116
-0.182504
-0.147143
-0.12932
-0.124946
-0.132364
-0.150984
-0.175572
-0.198151
-0.207269
-0.199365
-0.171037
-0.129978
-0.0795576
-0.0257329
1.26361
1.31158
1.40453
1.52653
1.54745
1.45667
-0.482859
-0.503769
-0.50572
-0.507591
-0.511286
-0.519311
-0.534867
-0.560917
-0.599649
-0.64662
-0.697324
-0.74348
-0.776843
-0.789182
-0.773476
-0.724164
-0.641658
-0.535544
-0.422978
-0.321471
-0.24183
-0.186977
-0.154894
-0.141097
-0.141526
-0.15449
-0.178827
-0.207893
-0.232734
-0.24136
-0.229186
-0.194572
-0.146501
-0.0887893
-0.0288574
1.29063
1.34585
1.45593
1.60468
1.69384
-0.516339
-0.551661
-0.558978
-0.567081
-0.574775
-0.58153
-0.588501
-0.598485
-0.614899
-0.63874
-0.668643
-0.699102
-0.723014
-0.730646
-0.715011
-0.669501
-0.594681
-0.498686
-0.396692
-0.304516
-0.232411
-0.183933
-0.157764
-0.149569
-0.155648
-0.174472
-0.20438
-0.237383
-0.263574
-0.270301
-0.254023
-0.21332
-0.158914
-0.0951784
-0.0309927
1.27352
1.32756
1.43483
1.57802
1.6952
-0.579067
-0.610793
-0.623127
-0.638076
-0.650693
-0.656547
-0.653994
-0.644873
-0.634154
-0.62745
-0.628316
-0.635542
-0.643328
-0.642854
-0.626358
-0.584641
-0.519686
-0.43736
-0.350242
-0.271815
-0.211372
-0.172678
-0.154663
-0.153256
-0.165612
-0.190499
-0.22577
-0.262096
-0.288731
-0.292906
-0.272138
-0.225849
-0.166263
-0.0982425
-0.0320263
1.21315
1.25786
1.3429
1.44991
1.55201
-0.651911
-0.676045
-0.693982
-0.716071
-0.733756
-0.738583
-0.72589
-0.696153
-0.655568
-0.613717
-0.579469
-0.556865
-0.543271
-0.530636
-0.508897
-0.474391
-0.42137
-0.355385
-0.286342
-0.225126
-0.17966
-0.153258
-0.144782
-0.150875
-0.169982
-0.201125
-0.241491
-0.280413
-0.306521
-0.3075
-0.282141
-0.231127
-0.167942
-0.0977483
-0.0319254
1.11663
1.14647
1.19688
1.24676
1.2935
1.20548
-0.725069
-0.738252
-0.762765
-0.792502
-0.814009
-0.81683
-0.793305
-0.742705
-0.672238
-0.594706
-0.52364
-0.468175
-0.43005
-0.40342
-0.37867
-0.348653
-0.308141
-0.25986
-0.21054
-0.168373
-0.139495
-0.126297
-0.127728
-0.141678
-0.168007
-0.205621
-0.250652
-0.291211
-0.315724
-0.312945
-0.283174
-0.228633
-0.163773
-0.0937456
-0.030748
0.995625
1.00887
1.0233
1.01638
1.00887
0.821516
-0.76733
-0.787167
-0.819136
-0.855336
-0.879445
-0.878399
-0.842998
-0.772124
-0.674265
-0.564814
-0.46049
-0.374092
-0.311566
-0.270189
-0.241452
-0.216435
-0.188901
-0.15859
-0.129003
-0.105734
-0.0930407
-0.0924991
-0.103656
-0.125866
-0.160003
-0.204182
-0.253044
-0.293924
-0.315676
-0.308698
-0.274988
-0.218419
-0.154036
-0.0865686
-0.0286284
0.862661
0.861809
0.845595
0.793409
0.740404
0.394724
0.0290756
-0.812289
-0.793012
-0.819364
-0.857157
-0.896689
-0.920003
-0.912262
-0.86387
-0.77446
-0.654125
-0.52003
-0.390491
-0.279831
-0.196896
-0.141698
-0.108107
-0.087118
-0.0714665
-0.0572658
-0.0457352
-0.0396661
-0.041649
-0.0528937
-0.0739077
-0.10514
-0.147561
-0.197834
-0.24903
-0.288505
-0.306259
-0.294818
-0.25796
-0.201122
-0.139458
-0.0768103
-0.0257647
0.729248
0.717647
0.683277
0.601969
0.430248
0.185057
-0.341048
-0.768099
-0.868873
-0.820908
-0.807704
-0.835182
-0.875641
-0.913615
-0.931088
-0.913188
-0.851368
-0.746844
-0.611171
-0.462193
-0.318191
-0.19352
-0.0969191
-0.0306267
0.00877939
0.0286535
0.0367504
0.0384589
0.035258
0.0268056
0.0118221
-0.010749
-0.0421386
-0.0829643
-0.133233
-0.187983
-0.239218
-0.27526
-0.287838
-0.271919
-0.233072
-0.177936
-0.121168
-0.0652664
-0.0223944
0.602839
0.58542
0.54113
0.453182
0.29045
0.011385
-0.358468
-0.883807
-1.15774
-1.10044
-0.954745
-0.875634
-0.817049
-0.812132
-0.838891
-0.876186
-0.906094
-0.912169
-0.881328
-0.807369
-0.693555
-0.552117
-0.399953
-0.253432
-0.125121
-0.0228568
0.0502716
0.0955608
0.117942
0.124067
0.11853
0.105493
0.0861552
0.0602877
0.0272412
-0.0141169
-0.0635536
-0.119449
-0.17567
-0.224025
-0.254543
-0.261068
-0.241122
-0.201884
-0.150552
-0.100597
-0.0528505
-0.0187668
0.488205
0.46878
0.421914
0.338472
0.197981
-0.0164954
-0.323262
-0.683034
-1.00806
-1.17554
-1.15874
-1.04765
-0.918711
-0.850996
-0.817762
-0.813988
-0.831473
-0.856237
-0.871623
-0.862713
-0.819179
-0.737738
-0.623165
-0.48691
-0.343281
-0.205393
-0.082985
0.0176498
0.0931738
0.143141
0.169977
0.177869
0.171109
0.153794
0.128093
0.0946763
0.0537212
0.00506707
-0.0496422
-0.107164
-0.160944
-0.203427
-0.226651
-0.226855
-0.204084
-0.166524
-0.12104
-0.0793338
-0.0404886
-0.0151197
0.38745
0.368223
0.323857
0.24925
0.133921
-0.0297574
-0.242757
-0.497452
-0.714642
-0.859044
-0.916544
-0.897189
-0.846001
-0.802799
-0.781713
-0.779783
-0.78962
-0.801719
-0.802819
-0.781635
-0.731478
-0.651364
-0.546155
-0.425068
-0.298841
-0.177162
-0.0672943
0.025892
0.0993077
0.151676
0.183203
0.194977
0.19085
0.173799
0.146316
0.109739
0.0652394
0.0140203
-0.0409439
-0.0953186
-0.142816
-0.177022
-0.192113
-0.186815
-0.163208
-0.129611
-0.0916527
-0.0589264
-0.0289997
-0.0116598
0.300613
0.282725
0.243189
0.178527
0.084971
-0.0418572
-0.197705
-0.376458
-0.542672
-0.67223
-0.742638
-0.75553
-0.738837
-0.720974
-0.713134
-0.714417
-0.719672
-0.721791
-0.712874
-0.685853
-0.636705
-0.56537
-0.475679
-0.374243
-0.268657
-0.165788
-0.0709775
0.0118212
0.0797493
0.1317
0.164537
0.180989
0.181323
0.16777
0.142529
0.107364
0.0643321
0.0158353
-0.034284
-0.0813016
-0.119789
-0.144554
-0.15225
-0.143538
-0.121628
-0.0940211
-0.0645192
-0.0406622
-0.018989
-0.00854795
0.22661
0.210601
0.176375
0.121262
0.0449418
-0.0550726
-0.173476
-0.305045
-0.43308
-0.53726
-0.603366
-0.632117
-0.637991
-0.637
-0.637089
-0.639212
-0.641388
-0.638094
-0.624609
-0.597015
-0.553011
-0.49276
-0.41895
-0.336094
-0.249426
-0.163881
-0.0835778
-0.0118067
0.0489875
0.0966592
0.131191
0.150176
0.154564
0.145769
0.125436
0.0953758
0.0580547
0.0165464
-0.0250876
-0.0624161
-0.0911512
-0.107313
-0.109892
-0.100705
-0.0828727
-0.062408
-0.0412747
-0.0253732
-0.010781
-0.00588779
0.163974
0.150022
0.12075
0.0742295
0.0114456
-0.0684531
-0.161003
-0.261598
-0.35998
-0.442968
-0.502222
-0.537356
-0.554758
-0.562926
-0.567508
-0.570294
-0.570291
-0.564409
-0.549721
-0.52399
-0.485938
-0.435753
-0.37527
-0.307588
-0.236415
-0.165386
-0.0976923
-0.0359637
0.0178121
0.0617314
0.0946389
0.115032
0.123029
0.119305
0.105126
0.0822379
0.0530956
0.0208132
-0.0109594
-0.0385205
-0.0583354
-0.0690215
-0.0696289
-0.0625337
-0.0500266
-0.0365674
-0.0227462
-0.0133441
-0.0044177
-0.00372017
0.111219
0.0992626
0.0743556
0.035289
-0.0166762
-0.0812097
-0.154934
-0.233755
-0.310929
-0.378463
-0.43084
-0.466662
-0.48852
-0.501062
-0.508178
-0.511458
-0.510542
-0.503871
-0.489637
-0.466482
-0.43372
-0.391617
-0.341513
-0.285622
-0.226624
-0.16723
-0.109915
-0.0567666
-0.00949728
0.0302412
0.061218
0.0824055
0.0934738
0.0946837
0.0869537
0.0718019
0.0513702
0.0283352
0.00562602
-0.0139344
-0.0278506
-0.0352757
-0.0360646
-0.0321041
-0.0246644
-0.0170041
-0.00889752
-0.00438621
0.000268919
-0.00203108
0.0669589
0.0568019
0.0356618
0.00289455
-0.0403134
-0.0930042
-0.152614
-0.21575
-0.277855
-0.333762
-0.379441
-0.413243
-0.436114
-0.450587
-0.459114
-0.46288
-0.461861
-0.455255
-0.442005
-0.421327
-0.392926
-0.357139
-0.315003
-0.268151
-0.218569
-0.168313
-0.119323
-0.0732954
-0.0316822
0.00419211
0.0332603
0.0546921
0.0680631
0.0734478
0.0714543
0.0632504
0.0505085
0.0353183
0.0198873
0.00626141
-0.0037624
-0.00963382
-0.0113163
-0.0101215
-0.00657188
-0.00311896
0.00089076
0.00195815
0.00355026
-0.0007701
0.0299468
0.021345
0.00341397
-0.0241228
-0.0602232
-0.103714
-0.152587
-0.204151
-0.255129
-0.301915
-0.341514
-0.372408
-0.394755
-0.409818
-0.41901
-0.423135
-0.422285
-0.416071
-0.403939
-0.385492
-0.360666
-0.329831
-0.293827
-0.253909
-0.211592
-0.168474
-0.126097
-0.0858491
-0.048943
-0.0164394
0.0107659
0.0319834
0.0468142
0.0552482
0.057663
0.0549013
0.0481732
0.039028
0.0290715
0.0197695
0.0124448
0.00751774
0.00518111
0.00453292
0.00550345
0.00618649
0.00744711
0.00622542
0.00571967
0.000131356
-0.00090146
-0.00819349
-0.0234239
-0.046663
-0.0770043
-0.113284
-0.153876
-0.196658
-0.23915
-0.278714
-0.313101
-0.340983
-0.362096
-0.376944
-0.386266
-0.390561
-0.389948
-0.38426
-0.373248
-0.356753
-0.334849
-0.307917
-0.27667
-0.24211
-0.205433
-0.167906
-0.130775
-0.0951818
-0.062146
-0.0325322
-0.0070899
0.0136043
0.0291905
0.0396158
0.0451018
0.0462378
0.0438756
0.0391282
0.0331683
0.0271065
0.0218586
0.0177902
0.0152455
0.0136081
0.0130565
0.0120601
0.0115787
0.00892283
0.00704829
0.000745668
-0.0265077
-0.0327144
-0.0456985
-0.0654291
-0.0911154
-0.121696
-0.155825
-0.191813
-0.227726
-0.261565
-0.291589
-0.31663
-0.33621
-0.3504
-0.359518
-0.363839
-0.363457
-0.358317
-0.348337
-0.333507
-0.313985
-0.290153
-0.262635
-0.232259
-0.199995
-0.166873
-0.133914
-0.102071
-0.0722036
-0.0450362
-0.0212045
-0.00119961
0.0146514
0.026268
0.033769
0.0375638
0.0382471
0.0366249
0.0335812
0.0299584
0.0263736
0.0231746
0.0207826
0.0187615
0.0174181
0.0154906
0.0139706
0.0104816
0.00776663
0.00114025
-0.0476425
-0.0529601
-0.0640965
-0.0809788
-0.102916
-0.128974
-0.158026
-0.188706
-0.219473
-0.248758
-0.275158
-0.297641
-0.315637
-0.328975
-0.337712
-0.34196
-0.341767
-0.337126
-0.328051
-0.314618
-0.297035
-0.27568
-0.251109
-0.224024
-0.195237
-0.165601
-0.135969
-0.107147
-0.0798682
-0.0547535
-0.0323537
-0.0130958
0.00271858
0.0149892
0.023767
0.0293339
0.0321128
0.0327048
0.0317785
0.0299397
0.0277042
0.0253702
0.0233483
0.0213099
0.0196329
0.0172545
0.0151649
0.0112478
0.00806136
0.0013734
-0.064941
-0.0695383
-0.0791725
-0.0937595
-0.112695
-0.135167
-0.160226
-0.186746
-0.213472
-0.239125
-0.262543
-0.282804
-0.29931
-0.311754
-0.320034
-0.324142
-0.324083
-0.319868
-0.311558
-0.299282
-0.283273
-0.263898
-0.241661
-0.217175
-0.191132
-0.164258
-0.137279
-0.110887
-0.0857139
-0.0623061
-0.0411495
-0.0226232
-0.00700867
0.00557946
0.0151455
0.0218837
0.0261021
0.0282548
0.0288508
0.0283473
0.0272026
0.0256551
0.0240793
0.0222146
0.0204707
0.0179333
0.0155738
0.0114895
0.00807882
0.00149311
-0.0789204
-0.0829416
-0.0913722
-0.10413
-0.120687
-0.140337
-0.162269
-0.185538
-0.209096
-0.23187
-0.252866
-0.271257
-0.286439
-0.298036
-0.305846
-0.30978
-0.309805
-0.305937
-0.29826
-0.286926
-0.27218
-0.254379
-0.233984
-0.211541
-0.187658
-0.162962
-0.138088
-0.113635
-0.090162
-0.0681551
-0.0480513
-0.0301948
-0.0148511
-0.00214516
0.00789533
0.0154049
0.0206079
0.0238596
0.0255576
0.0260691
0.0257857
0.0249035
0.0237655
0.0221527
0.0204826
0.0179514
0.0155036
0.0114094
0.0079312
0.00153761
-0.0899954
-0.0935647
-0.10105
-0.112378
-0.12708
-0.144542
-0.164057
-0.184816
-0.20592
-0.226444
-0.245516
-0.262378
-0.276441
-0.287288
-0.29466
-0.298413
-0.298485
-0.29489
-0.287719
-0.277135
-0.263385
-0.246815
-0.227856
-0.207001
-0.184795
-0.161797
-0.138566
-0.115638
-0.0935144
-0.0726345
-0.0533965
-0.0361198
-0.0210586
-0.00834476
0.00197257
0.00998595
0.0158628
0.0198879
0.022379
0.0236467
0.0240296
0.0236893
0.0229402
0.0215912
0.0200562
0.0176131
0.0151779
0.0111583
0.00770286
0.00153648
-0.0984918
-0.101718
-0.108484
-0.118726
-0.132025
-0.147835
-0.165531
-0.184401
-0.203653
-0.222469
-0.240059
-0.255723
-0.268885
-0.279112
-0.286107
-0.289693
-0.289785
-0.286397
-0.279616
-0.269607
-0.25662
-0.240988
-0.223116
-0.203463
-0.182527
-0.160814
-0.138834
-0.117071
-0.0959846
-0.0759798
-0.0574264
-0.0406252
-0.0258214
-0.0131512
-0.00267874
0.00565913
0.0119916
0.0165522
0.0196064
0.0214257
0.0223078
0.0223885
0.0219596
0.0208481
0.0194603
0.0171336
0.0147578
0.0108464
0.007456
0.00151214
-0.104658
-0.107636
-0.113884
-0.123345
-0.135637
-0.150263
-0.166657
-0.184175
-0.202099
-0.219683
-0.236196
-0.250976
-0.263462
-0.273213
-0.279914
-0.283362
-0.283455
-0.280218
-0.27372
-0.26413
-0.251695
-0.236739
-0.219651
-0.200862
-0.180838
-0.160052
-0.138973
-0.118054
-0.0977221
-0.0783583
-0.0603137
-0.0438749
-0.02928
-0.0166681
-0.0061135
0.00242701
0.00905649
0.0139759
0.0174176
0.0196213
0.0208567
0.021244
0.0210578
0.0201366
0.018878
0.0166622
0.0143561
0.0105521
0.00723545
0.00148152
-0.108673
-0.111491
-0.117403
-0.126358
-0.137999
-0.151861
-0.167416
-0.184062
-0.201128
-0.217912
-0.233723
-0.247922
-0.259958
-0.269388
-0.275888
-0.279242
-0.279337
-0.276192
-0.269874
-0.260555
-0.248479
-0.233963
-0.217381
-0.199152
-0.179719
-0.159532
-0.139039
-0.118668
-0.0988285
-0.0798858
-0.062178
-0.0459826
-0.0315336
-0.0189716
-0.00837728
0.000280444
0.00708929
0.0122298
0.0159131
0.0183591
0.0198206
0.0204078
0.0203839
0.0195943
0.0184297
0.016298
0.0140489
0.0103293
0.00707041
0.00145947
-0.110649
-0.113391
-0.119139
-0.127844
-0.139166
-0.152654
-0.167798
-0.184016
-0.200662
-0.217053
-0.232517
-0.246427
-0.258239
-0.267509
-0.273907
-0.277217
-0.277338
-0.274212
-0.267978
-0.258791
-0.246892
-0.232591
-0.216259
-0.198305
-0.179162
-0.159269
-0.139063
-0.118963
-0.0993666
-0.0806324
-0.0630919
-0.0470187
-0.0326443
-0.0201105
-0.00950023
-0.000788809
0.00610476
0.0113499
0.0151487
0.0177123
0.0192841
0.0199702
0.0200263
0.0193054
0.0181868
0.0161048
0.0138793
0.0102178
0.00697177
0.00146431
0.11455
0.111791
0.105991
0.0971631
0.0855928
0.0716455
0.0557254
0.0382903
0.0198482
0.000929808
-0.0179464
-0.0363047
-0.0537366
-0.0699139
-0.08459
-0.0975923
-0.108806
-0.118159
-0.125609
-0.131132
-0.134721
-0.136384
-0.136144
-0.134051
-0.13019
-0.124693
-0.11774
-0.109565
-0.100443
-0.0906789
-0.0805884
-0.0704806
-0.060627
-0.0512602
-0.0425423
-0.0345804
-0.0274074
-0.0209949
-0.0152903
-0.0101356
-0.00552504
-0.00113407
0.0026961
0.00665562
0.00943418
0.0126786
0.0129885
0.0142622
0.00942834
0.00698224
0.116539
0.113716
0.107773
0.0987311
0.0868871
0.0726204
0.0563515
0.0385573
0.0197667
0.00052944
-0.0186199
-0.0371961
-0.0547881
-0.071072
-0.0858106
-0.0988427
-0.110065
-0.119414
-0.126857
-0.132373
-0.135958
-0.137618
-0.137375
-0.135273
-0.131394
-0.125863
-0.11886
-0.110616
-0.101407
-0.0915445
-0.0813459
-0.0711265
-0.0611621
-0.0516897
-0.0428736
-0.0348226
-0.0275693
-0.021085
-0.0153158
-0.0100998
-0.00543477
-0.000982723
0.00289335
0.00692379
0.00972451
0.0130528
0.013312
0.0146668
0.00963192
0.00722108
0.120573
0.117612
0.111379
0.101903
0.0895
0.0745805
0.0575987
0.0390712
0.0195693
-0.000316583
-0.0200193
-0.0390335
-0.0569438
-0.0734362
-0.0882939
-0.10138
-0.112614
-0.121953
-0.129378
-0.13488
-0.138457
-0.140115
-0.139869
-0.137755
-0.133842
-0.128247
-0.121143
-0.112761
-0.103379
-0.093314
-0.0828947
-0.072447
-0.0622563
-0.0525683
-0.0435521
-0.03532
-0.0279045
-0.0212749
-0.0153758
-0.0100373
-0.00526134
-0.000690607
0.00328542
0.00744422
0.0103141
0.0137713
0.0139879
0.0154111
0.0100968
0.00757373
0.126747
0.123573
0.116894
0.106744
0.0934756
0.0775432
0.0594544
0.0397883
0.0191843
-0.00170216
-0.0222515
-0.0419273
-0.060309
-0.0771012
-0.0921213
-0.105272
-0.116511
-0.125826
-0.13322
-0.1387
-0.142271
-0.143933
-0.143693
-0.141571
-0.137616
-0.131933
-0.124681
-0.11609
-0.106442
-0.0960646
-0.0853025
-0.0744994
-0.0639567
-0.0539341
-0.0446088
-0.0360982
-0.0284349
-0.0215843
-0.0154894
-0.00996554
-0.00502389
-0.000274267
0.00385333
0.00820271
0.0111874
0.0148226
0.0150022
0.0164826
0.0108097
0.00803351
0.135217
0.131746
0.124446
0.11336
0.0988846
0.0815362
0.0618976
0.0406376
0.0184945
-0.00378054
-0.0254908
-0.0460562
-0.0650525
-0.0822169
-0.0974209
-0.110627
-0.121847
-0.131112
-0.138457
-0.143908
-0.147479
-0.149163
-0.148954
-0.146843
-0.142855
-0.137067
-0.129625
-0.120752
-0.110736
-0.0999236
-0.0886805
-0.0773776
-0.0663404
-0.055849
-0.0460935
-0.0371972
-0.0291948
-0.0220429
-0.0156851
-0.00991105
-0.00474978
0.000240625
0.00457409
0.00917458
0.0123349
0.0161788
0.0163604
0.0178355
0.011784
0.00854647
0.146195
0.142335
0.134218
0.121897
0.105824
0.0865953
0.064893
0.0415097
0.0173226
-0.00678116
-0.0299957
-0.0516818
-0.0714179
-0.0889963
-0.104372
-0.117595
-0.128749
-0.137921
-0.145189
-0.150605
-0.154195
-0.155939
-0.155807
-0.153755
-0.149761
-0.143869
-0.1362
-0.126969
-0.116472
-0.105081
-0.0931936
-0.0812197
-0.0695197
-0.0584023
-0.0480766
-0.0386733
-0.0302309
-0.0226908
-0.0160013
-0.00990963
-0.00447591
0.000819165
0.00541795
0.0103284
0.0137482
0.0178063
0.0180762
0.0194178
0.0130333
0.00905627
0.159966
0.155607
0.146449
0.132547
0.114421
0.0927633
0.0683838
0.0422428
0.0154099
-0.0110361
-0.0361355
-0.0591723
-0.0797418
-0.0977286
-0.113215
-0.126372
-0.137379
-0.146394
-0.153548
-0.158929
-0.162575
-0.164443
-0.164476
-0.162567
-0.15863
-0.152657
-0.144735
-0.135064
-0.123954
-0.111809
-0.0990774
-0.0862213
-0.0736517
-0.0617172
-0.0506542
-0.0406015
-0.0316049
-0.0235805
-0.016487
-0.0100077
-0.00424904
0.00141519
0.0063482
0.0116271
0.0154181
0.019672
0.0201599
0.0212044
0.0145506
0.00956252
0.176886
0.171905
0.161448
0.145561
0.12484
0.10009
0.0722806
0.0425987
0.01238
-0.0170235
-0.0444333
-0.0690378
-0.0904789
-0.108795
-0.12426
-0.137211
-0.147946
-0.156709
-0.1637
-0.169055
-0.17282
-0.174927
-0.175271
-0.173649
-0.169884
-0.16389
-0.155703
-0.145504
-0.133617
-0.120498
-0.106664
-0.0926541
-0.0789517
-0.06596
-0.0539535
-0.0430799
-0.0333953
-0.0247787
-0.0172026
-0.0102646
-0.00412705
0.00196787
0.0073184
0.013027
0.017322
0.0217438
0.0225868
0.0232168
0.0162986
0.0101645
0.197405
0.191656
0.179601
0.161251
0.137286
0.108628
0.0764454
0.0422287
0.00768382
-0.0254358
-0.0556345
-0.0819856
-0.104239
-0.122691
-0.137902
-0.150427
-0.160707
-0.169086
-0.17585
-0.181202
-0.185187
-0.187747
-0.188637
-0.187535
-0.184131
-0.178232
-0.169792
-0.158961
-0.146088
-0.131701
-0.116419
-0.100895
-0.0857123
-0.0713522
-0.0581401
-0.0462338
-0.0357005
-0.0263688
-0.0182221
-0.0107561
-0.00418203
0.00239988
0.00826393
0.0144668
0.0193913
0.0239629
0.0252353
0.0254516
0.0181701
0.0109993
0.222071
0.215386
0.201394
0.180013
0.152021
0.118429
0.0806642
0.0406193
0.000518492
-0.0372811
-0.070811
-0.0990081
-0.121846
-0.14006
-0.154637
-0.166414
-0.175978
-0.183788
-0.190247
-0.195653
-0.200078
-0.203388
-0.205195
-0.20499
-0.202261
-0.19665
-0.187999
-0.176411
-0.162269
-0.146208
-0.129001
-0.111464
-0.0943301
-0.0781869
-0.0634277
-0.0502213
-0.0386415
-0.0284531
-0.0196344
-0.011578
-0.0045074
0.00261191
0.00908978
0.0158461
0.021456
0.0261539
0.0277851
0.0276686
0.0198599
0.0120052
0.251549
0.24374
0.227428
0.202346
0.169374