/*--------------------------------*- C++ -*----------------------------------*\
  =========                 |
  \\      /  F ield         | OpenFOAM: The Open Source CFD Toolbox
   \\    /   O peration     | Website:  https://openfoam.org
    \\  /    A nd           | Version:  8
     \\/     M anipulation  |
\*---------------------------------------------------------------------------*/
FoamFile
{
    version     2.0;
    format      ascii;
    class       surfaceScalarField;
    location    "34.5";
    object      phi;
}
// * * * * * * * * * * * * * * * * * * * * * * * * * * * * * * * * * * * * * //

dimensions      [0 3 -1 0 0 0 0];

internalField   nonuniform List<scalar> 
880
(
-1.4707e-05
1.47069e-05
-3.01713e-05
1.54644e-05
-4.49881e-05
1.48168e-05
-5.88185e-05
1.38304e-05
-7.13665e-05
1.25481e-05
-8.23616e-05
1.09951e-05
-9.16041e-05
9.24242e-06
-9.8847e-05
7.24296e-06
-0.000104249
5.40206e-06
-0.000107062
2.81293e-06
-0.000109089
2.02681e-06
-3.92639e-07
-0.000108696
-1.61082e-05
3.08152e-05
-3.30106e-05
3.23667e-05
-4.92012e-05
3.10073e-05
-6.43099e-05
2.89391e-05
-7.80201e-05
2.62583e-05
-9.00519e-05
2.30269e-05
-0.000100209
1.93992e-05
-0.000108272
1.53067e-05
-0.000114438
1.15678e-05
-0.000118112
6.48639e-06
-0.000121115
5.02996e-06
-1.81587e-06
-0.000119692
-1.68101e-05
4.76253e-05
-3.44451e-05
5.00017e-05
-5.13232e-05
4.78854e-05
-6.70432e-05
4.46591e-05
-8.12558e-05
4.04709e-05
-9.36363e-05
3.54074e-05
-0.000103884
2.96469e-05
-0.000111766
2.31887e-05
-0.000116905
1.67069e-05
-0.000119445
9.02591e-06
-0.000118234
3.8195e-06
-5.64019e-06
-0.00011441
-1.78599e-05
6.54852e-05
-3.65944e-05
6.87362e-05
-5.45219e-05
6.58129e-05
-7.12171e-05
6.13543e-05
-8.6327e-05
5.55808e-05
-9.95356e-05
4.8616e-05
-0.000110589
4.07e-05
-0.000119247
3.18474e-05
-0.0001251
2.25597e-05
-0.000128194
1.21194e-05
-0.000127131
2.75726e-06
-9.41018e-06
-0.000123361
-1.93061e-05
8.47913e-05
-3.95508e-05
8.89809e-05
-5.89098e-05
8.51719e-05
-7.69044e-05
7.93489e-05
-9.3155e-05
7.18313e-05
-0.000107286
6.2747e-05
-0.000118955
5.2369e-05
-0.000127905
4.07977e-05
-0.00013382
2.84745e-05
-0.000136819
1.51182e-05
-0.000136206
2.14417e-06
-1.30912e-05
-0.000132525
-2.1206e-05
0.000105997
-4.34257e-05
0.000111201
-6.46636e-05
0.00010641
-8.43709e-05
9.90562e-05
-0.00010218
8.96403e-05
-0.00011771
7.82771e-05
-0.000130722
6.53811e-05
-0.000141008
5.10836e-05
-0.000148139
3.56055e-05
-0.000151901
1.88803e-05
-0.000151264
1.50759e-06
-1.67924e-05
-0.000147563
-2.35594e-05
0.000129557
-4.8243e-05
0.000135884
-7.1826e-05
0.000129993
-9.36543e-05
0.000120885
-0.000113337
0.000109323
-0.000130418
9.53589e-05
-0.000144592
7.95546e-05
-0.000155534
6.20254e-05
-0.000163154
4.32261e-05
-0.000167511
2.32371e-05
-0.000168593
2.58933e-06
-1.97464e-05
-0.000165639
-2.66304e-05
0.000156187
-5.4402e-05
0.000163656
-8.08961e-05
0.000156487
-0.000105219
0.000145207
-0.000127207
0.000131311
-0.000146319
0.000114471
-0.000162538
9.57731e-05
-0.000175628
7.51157e-05
-0.000185181
5.27794e-05
-0.000190798
2.88538e-05
-0.000191704
3.49565e-06
-2.2646e-05
-0.000188805
-2.99567e-05
0.000186144
-6.13079e-05
0.000195007
-9.1196e-05
0.000186375
-0.000118616
0.000172628
-0.000143334
0.000156028
-0.000164582
0.000135719
-0.000182122
0.000113313
-0.000195769
8.87626e-05
-0.000205763
6.27736e-05
-0.000212255
3.53456e-05
-0.000215584
6.82466e-06
-2.39916e-05
-0.000214238
-3.51212e-05
0.000221265
-7.1171e-05
0.000231057
-0.000105598
0.000220802
-0.000136201
0.000203231
-0.000163979
0.000183806
-0.000187654
0.000159395
-0.000208284
0.000133943
-0.000225099
0.000105578
-0.000238003
7.56775e-05
-0.000246566
4.39079e-05
-0.000250094
1.0353e-05
-2.50241e-05
-0.000249062
-3.91147e-05
0.00026038
-8.02998e-05
0.000272242
-0.000119153
0.000259656
-0.000154165
0.000238242
-0.000185579
0.00021522
-0.000211657
0.000185472
-0.000233084
0.00015537
-0.000249841
0.000122335
-0.000262634
8.84708e-05
-0.00027177
5.30431e-05
-0.00027836
1.69435e-05
-2.37194e-05
-0.000279665
-4.90346e-05
0.000309414
-9.72185e-05
0.000320426
-0.000143066
0.000305504
-0.00018159
0.000276766
-0.000216759
0.000250389
-0.000245511
0.000214225
-0.000270829
0.000180688
-0.000291271
0.000142776
-0.000307971
0.000105171
-0.000320397
6.54694e-05
-0.000328675
2.52212e-05
-2.09458e-05
-0.000331448
-5.11001e-05
0.000360514
-0.000108376
0.000377702
-0.000158994
0.000356122
-0.000205561
0.000323334
-0.000243823
0.000288651
-0.000275046
0.000245447
-0.000300152
0.000205794
-0.000319308
0.000161932
-0.00033439
0.000120253
-0.000345624
7.67038e-05
-0.000356158
3.57548e-05
-1.52298e-05
-0.000361874
-7.84739e-05
0.000438988
-0.000140039
0.000439267
-0.000203789
0.000419872
-0.00024882
0.000368365
-0.000291517
0.000331347
-0.000323309
0.000277239
-0.000351507
0.000233992
-0.000373889
0.000184314
-0.000393843
0.000140207
-0.000410261
9.3122e-05
-0.000426028
5.15219e-05
-4.95399e-06
-0.000436304
-5.84142e-05
0.000497403
-0.000150557
0.000531409
-0.000218864
0.000488179
-0.000284421
0.000433922
-0.000329106
0.000376032
-0.000364759
0.000312892
-0.000389214
0.000258447
-0.000406788
0.000201888
-0.000420504
0.000153923
-0.000431031
0.000103649
-0.000443253
6.37435e-05
6.00335e-06
-0.00045421
-0.000161053
0.000658455
-0.000220991
0.000591347
-0.000303152
0.00057034
-0.000349731
0.000480501
-0.000392296
0.000418597
-0.000423825
0.00034442
-0.000448546
0.000283169
-0.000469333
0.000222675
-0.000488535
0.000173125
-0.000507374
0.000122488
-0.000530813
8.71824e-05
2.87891e-05
-0.000553599
-3.60099e-05
0.000694465
-0.000219327
0.000774664
-0.000330253
0.000681267
-0.000420817
0.000571065
-0.000467977
0.000465757
-0.000496019
0.000372463
-0.000508496
0.000295645
-0.000514521
0.000228701
-0.000517711
0.000176315
-0.000521257
0.000126033
-0.000527076
9.30011e-05
4.04188e-05
-0.000538705
-0.000262025
0.00095649
-0.000317011
0.000829649
-0.000409671
0.000773928
-0.000490313
0.000651707
-0.000515778
0.000491222
-0.000548574
0.000405258
-0.000557473
0.000304544
-0.000569024
0.000240252
-0.000577309
0.000184601
-0.000590413
0.000139138
-0.000612683
0.00011527
7.30694e-05
-0.000645333
-0.00105213
0.00200862
-0.00105043
0.000827947
-0.00108753
0.000811028
-0.000953699
0.00051788
-0.000856194
0.000393717
-0.000737892
0.000286956
-0.000646709
0.000213362
-0.000569916
0.000163459
-0.000508206
0.00012289
-0.000463954
9.48851e-05
-0.000420688
7.2005e-05
5.36419e-05
-0.000401261
0.00200862
0.00283657
0.00364759
0.00416547
0.00455919
0.00484615
0.00505951
0.00522297
0.00534586
0.00544074
0.00551275
0.00556639
-8.57404e-05
3.33445e-05
-5.63003e-05
-6.64504e-05
1.37943e-05
-3.30843e-05
-5.4405e-05
-3.19217e-06
-8.85313e-06
-4.30312e-05
-1.6112e-05
4.73814e-06
-3.24098e-05
-2.62536e-05
1.56323e-05
-2.14925e-05
-3.36608e-05
2.27435e-05
-1.04726e-05
-3.84815e-05
2.74615e-05
-3.81349e-05
2.76623e-05
-9.43939e-05
8.04678e-06
-7.4128e-05
-6.47161e-06
-6.09808e-05
-1.63393e-05
-4.84589e-05
-2.86339e-05
-3.66987e-05
-3.80138e-05
-2.44574e-05
-4.59021e-05
-1.19429e-05
-5.09959e-05
-5.00778e-05
-0.000101515
-4.84802e-06
-8.8752e-05
-1.92347e-05
-7.51814e-05
-2.99099e-05
-6.11726e-05
-4.26427e-05
-4.64289e-05
-5.27576e-05
-3.10395e-05
-6.12916e-05
-1.51485e-05
-6.68869e-05
-6.52263e-05
-0.000111031
-1.71778e-05
-9.84417e-05
-3.18245e-05
-8.42833e-05
-4.40683e-05
-6.92628e-05
-5.76632e-05
-5.3022e-05
-6.89983e-05
-3.56681e-05
-7.86455e-05
-1.74829e-05
-8.50721e-05
-8.27092e-05
-0.000123696
-2.60064e-05
-0.00011255
-4.29712e-05
-9.83455e-05
-5.82725e-05
-8.18822e-05
-7.41265e-05
-6.32874e-05
-8.75931e-05
-4.27528e-05
-9.91801e-05
-2.10436e-05
-0.000106781
-0.000103753
-0.000138832
-3.47374e-05
-0.000127371
-5.44322e-05
-0.000112413
-7.32304e-05
-9.43912e-05
-9.21485e-05
-7.36364e-05
-0.000108348
-5.00289e-05
-0.000122788
-2.47817e-05
-0.000132028
-0.000128535
-0.000158231
-4.21457e-05
-0.000146637
-6.60253e-05
-0.000131097
-8.87713e-05
-0.000110885
-0.000112361
-8.75157e-05
-0.000131717
-5.96073e-05
-0.000150696
-2.98544e-05
-0.000161781
-0.000158389
-0.000181533
-4.94179e-05
-0.000169579
-7.79788e-05
-0.000153234
-0.000105117
-0.000130812
-0.000134783
-0.000104499
-0.00015803
-7.16272e-05
-0.000183568
-3.63053e-05
-0.000197103
-0.000194694
-0.000208379
-5.52765e-05
-0.00019603
-9.03281e-05
-0.000179893
-0.000121254
-0.00015448
-0.000160195
-0.000125906
-0.000186603
-8.64236e-05
-0.00022305
-4.49766e-05
-0.00023855
-0.000239671
-0.000244088
-6.025e-05
-0.000232188
-0.000102229
-0.000215935
-0.000137507
-0.000188258
-0.000187872
-0.000155878
-0.000218984
-0.000108471
-0.000270457
-5.74564e-05
-0.000289565
-0.000297127
-0.000278001
-6.19136e-05
-0.000266284
-0.000113945
-0.00025304
-0.000150752
-0.000222618
-0.000218294
-0.000190828
-0.000250774
-0.00013375
-0.000327535
-7.50937e-05
-0.000348221
-0.000372221
-0.000332577
-6.07852e-05
-0.000324368
-0.000122154
-0.000313662
-0.000161457
-0.000283261
-0.000248695
-0.000248099
-0.000285937
-0.000179037
-0.000396597
-0.000103744
-0.000423514
-0.000475965
-0.000368476
-5.4183e-05
-0.000361988
-0.000128642
-0.000360537
-0.000162908
-0.000331388
-0.000277845
-0.000307787
-0.000309538
-0.000228407
-0.000475977
-0.000149294
-0.000502627
-0.000625259
-0.000450385
-4.01017e-05
-0.000455224
-0.000123803
-0.000464375
-0.000153758
-0.000444963
-0.000297256
-0.000425261
-0.00032924
-0.000334178
-0.000567059
-0.000230763
-0.000606042
-0.000856022
-0.000472442
-2.18697e-05
-0.000479666
-0.000116579
-0.000506457
-0.000126966
-0.000501447
-0.000302266
-0.000526082
-0.000304606
-0.000448265
-0.000644876
-0.00038159
-0.000672717
-0.00123761
-0.000589484
1.40158e-05
-0.000624067
-8.19962e-05
-0.000681163
-6.98709e-05
-0.000714992
-0.000268437
-0.000774457
-0.000245141
-0.000720979
-0.000698354
-0.000655668
-0.000738029
-0.00189328
-0.000560246
3.55569e-05
-0.000586682
-5.55603e-05
-0.000651653
-4.89994e-06
-0.00071513
-0.00020496
-0.000879375
-8.08954e-05
-0.000947012
-0.000630717
-0.00100934
-0.000675701
-0.00290262
-0.000702086
9.23092e-05
-0.000780863
2.32166e-05
-0.000907194
0.000121431
-0.00106616
-4.59928e-05
-0.00124299
9.59292e-05
-0.00133894
-0.000534758
-0.00102119
-0.000993459
-0.00392381
-0.000354414
4.54619e-05
-0.000350217
1.90201e-05
-0.000256882
2.80968e-05
-0.00024551
-5.7365e-05
-2.49242e-05
-0.000124657
6.51334e-06
-0.000566196
0.000326118
-0.00131306
-0.00359769
0.00561185
0.00563087
0.00565897
0.0056016
0.00547695
0.00491075
0.00359769
-1.43242e-06
1.43242e-06
-2.68664e-06
1.25421e-06
-3.44659e-06
7.59949e-07
-3.65044e-06
2.03853e-07
-3.28122e-06
-3.69218e-07
-2.43928e-06
-8.41942e-07
-1.25631e-06
-1.18297e-06
-1.25631e-06
-1.6464e-06
3.07883e-06
-3.06994e-06
2.67775e-06
-3.90852e-06
1.59853e-06
-4.08298e-06
3.78312e-07
-3.6427e-06
-8.09493e-07
-2.6995e-06
-1.78515e-06
-1.38841e-06
-2.49406e-06
-2.64472e-06
-2.49217e-06
5.57099e-06
-4.54421e-06
4.7298e-06
-5.67259e-06
2.7269e-06
-5.90938e-06
6.15105e-07
-5.22608e-06
-1.49279e-06
-3.83701e-06
-3.17422e-06
-1.96412e-06
-4.36695e-06
-4.60884e-06
-2.97544e-06
8.54643e-06
-5.36902e-06
7.12337e-06
-6.59512e-06
3.95301e-06
-6.6735e-06
6.93483e-07
-5.81661e-06
-2.34969e-06
-4.24533e-06
-4.7455e-06
-2.1634e-06
-6.44888e-06
-6.77224e-06
-5.71099e-06
1.42574e-05
-9.75352e-06
1.11659e-05
-1.14109e-05
5.61038e-06
-1.13569e-05
6.39511e-07
-9.67249e-06
-4.03411e-06
-6.92741e-06
-7.49058e-06
-3.49727e-06
-9.87902e-06
-1.02695e-05
-6.91087e-06
2.11683e-05
-1.16914e-05
1.59464e-05
-1.34636e-05
7.38262e-06
-1.3016e-05
1.91872e-07
-1.0972e-05
-6.0781e-06
-7.83244e-06
-1.06301e-05
-3.94125e-06
-1.37702e-05
-1.42108e-05
-1.57841e-05
3.69523e-05
-2.40155e-05
2.41779e-05
-2.48845e-05
8.25165e-06
-2.28166e-05
-1.87611e-06
-1.83818e-05
-1.05129e-05
-1.27063e-05
-1.63057e-05
-6.29964e-06
-2.01768e-05
-2.05104e-05
-1.93479e-05
-2.82544e-05
-2.88559e-05
-2.59939e-05
-2.08745e-05
-1.44366e-05
-7.15191e-06
)
;

boundaryField
{
    movingWall
    {
        type            calculated;
        value           uniform 0;
    }
    fixedWalls
    {
        type            calculated;
        value           uniform 0;
    }
    frontAndBack
    {
        type            empty;
        value           nonuniform List<scalar> 0();
    }
}


// ************************************************************************* //
