/*--------------------------------*- C++ -*----------------------------------*\
  =========                 |
  \\      /  F ield         | OpenFOAM: The Open Source CFD Toolbox
   \\    /   O peration     | Website:  https://openfoam.org
    \\  /    A nd           | Version:  8
     \\/     M anipulation  |
\*---------------------------------------------------------------------------*/
FoamFile
{
    version     2.0;
    format      ascii;
    class       volVectorField;
    location    "1.97";
    object      U;
}
// * * * * * * * * * * * * * * * * * * * * * * * * * * * * * * * * * * * * * //

dimensions      [0 1 -1 0 0 0 0];

internalField   nonuniform List<vector> 
400
(
(0.0249945 -1.84679e-16 0)
(0.0249945 -7.32223e-17 0)
(0.0249945 -3.1252e-17 0)
(0.0249945 -1.38189e-17 0)
(0.0249945 -7.51762e-18 0)
(0.0249945 -2.75736e-18 0)
(0.0249945 1.03923e-18 0)
(0.0249945 -6.12603e-19 0)
(0.0249945 -5.28532e-20 0)
(0.0249945 -5.11964e-19 0)
(0.0249945 -1.65532e-18 0)
(0.0249945 -6.10576e-18 0)
(0.0249945 -6.90522e-18 0)
(0.0249945 -9.75655e-18 0)
(0.0249945 -1.15838e-17 0)
(0.0249945 -1.12645e-17 0)
(0.0249945 -1.05834e-17 0)
(0.0249945 -1.96765e-17 0)
(0.0249945 -3.50514e-17 0)
(0.0249945 -7.37985e-17 0)
(0.0749838 -2.94756e-16 0)
(0.0749838 -1.2997e-16 0)
(0.0749838 -5.48165e-17 0)
(0.0749838 -2.55701e-17 0)
(0.0749838 -1.89894e-17 0)
(0.0749838 -1.94053e-17 0)
(0.0749838 -6.39428e-18 0)
(0.0749838 -7.0041e-18 0)
(0.0749838 -8.03282e-18 0)
(0.0749838 -6.7233e-18 0)
(0.0749838 -1.91159e-17 0)
(0.0749838 -2.53193e-17 0)
(0.0749838 -3.02919e-17 0)
(0.0749838 -3.62629e-17 0)
(0.0749838 -3.98669e-17 0)
(0.0749838 -3.54154e-17 0)
(0.0749838 -3.10094e-17 0)
(0.0749838 -4.44101e-17 0)
(0.0749838 -7.02078e-17 0)
(0.0749838 -1.39478e-16 0)
(0.124973 -1.05141e-16 0)
(0.124973 -6.89591e-17 0)
(0.124973 -4.20285e-17 0)
(0.124973 -2.09407e-17 0)
(0.124973 -2.27801e-17 0)
(0.124973 -3.40247e-17 0)
(0.124973 -2.58883e-17 0)
(0.124973 -1.89139e-17 0)
(0.124973 -2.59083e-17 0)
(0.124973 -3.68914e-17 0)
(0.124973 -4.38915e-17 0)
(0.124973 -5.40511e-17 0)
(0.124973 -6.80905e-17 0)
(0.124973 -8.27776e-17 0)
(0.124973 -7.42332e-17 0)
(0.124973 -6.77492e-17 0)
(0.124973 -4.43049e-17 0)
(0.124973 -3.70168e-17 0)
(0.124973 -5.04845e-17 0)
(0.124973 -6.95263e-17 0)
(0.174964 -1.34212e-17 0)
(0.174964 -1.20849e-17 0)
(0.174964 -1.14526e-17 0)
(0.174964 -7.5624e-18 0)
(0.174964 -2.25125e-17 0)
(0.174964 -3.75395e-17 0)
(0.174964 -4.29621e-17 0)
(0.174964 -3.40311e-17 0)
(0.174964 -4.73807e-17 0)
(0.174964 -6.94895e-17 0)
(0.174964 -8.15492e-17 0)
(0.174964 -1.03419e-16 0)
(0.174964 -1.16679e-16 0)
(0.174964 -1.23001e-16 0)
(0.174964 -1.0985e-16 0)
(0.174964 -8.68174e-17 0)
(0.174964 -4.00527e-17 0)
(0.174964 -1.63221e-18 0)
(0.174964 7.04742e-18 0)
(0.174964 7.45674e-18 0)
(0.224955 5.24876e-17 0)
(0.224955 4.14817e-17 0)
(0.224955 2.85407e-17 0)
(0.224955 -1.80436e-18 0)
(0.224955 -2.07764e-17 0)
(0.224955 -3.82155e-17 0)
(0.224955 -5.65371e-17 0)
(0.224955 -5.76536e-17 0)
(0.224955 -5.37293e-17 0)
(0.224955 -8.75556e-17 0)
(0.224955 -1.2107e-16 0)
(0.224955 -1.67249e-16 0)
(0.224955 -1.74714e-16 0)
(0.224955 -1.40571e-16 0)
(0.224955 -1.22895e-16 0)
(0.224955 -6.52608e-17 0)
(0.224955 -1.13775e-17 0)
(0.224955 3.1844e-17 0)
(0.224955 5.68872e-17 0)
(0.224955 6.11644e-17 0)
(0.274947 8.20794e-17 0)
(0.274947 8.22682e-17 0)
(0.274947 5.09819e-17 0)
(0.274947 1.92088e-17 0)
(0.274947 -2.80099e-17 0)
(0.274947 -3.55617e-17 0)
(0.274947 -7.25384e-17 0)
(0.274947 -8.51394e-17 0)
(0.274947 -7.16539e-17 0)
(0.274947 -1.09147e-16 0)
(0.274947 -1.59522e-16 0)
(0.274947 -2.12164e-16 0)
(0.274947 -2.12324e-16 0)
(0.274947 -1.73484e-16 0)
(0.274947 -1.05253e-16 0)
(0.274947 -4.81901e-17 0)
(0.274947 1.39582e-17 0)
(0.274947 4.85006e-17 0)
(0.274947 7.64944e-17 0)
(0.274947 7.33783e-17 0)
(0.324941 6.89303e-17 0)
(0.324941 7.40629e-17 0)
(0.324941 5.94319e-17 0)
(0.324941 2.58636e-17 0)
(0.324941 -6.89887e-18 0)
(0.324941 -4.85917e-17 0)
(0.324941 -5.20327e-17 0)
(0.324941 -8.41368e-17 0)
(0.324941 -1.25659e-16 0)
(0.324941 -1.68578e-16 0)
(0.324941 -1.9167e-16 0)
(0.324941 -2.26619e-16 0)
(0.324941 -2.30541e-16 0)
(0.324941 -1.69457e-16 0)
(0.324941 -9.36406e-17 0)
(0.324941 -3.05124e-17 0)
(0.324941 2.77805e-17 0)
(0.324941 8.48747e-17 0)
(0.324941 8.96479e-17 0)
(0.324941 6.44006e-17 0)
(0.374936 7.10792e-17 0)
(0.374936 7.01745e-17 0)
(0.374936 5.33763e-17 0)
(0.374936 -2.39533e-18 0)
(0.374936 -2.01725e-17 0)
(0.374936 -5.28847e-17 0)
(0.374936 -5.4785e-17 0)
(0.374936 -8.22721e-17 0)
(0.374936 -1.58576e-16 0)
(0.374936 -2.26117e-16 0)
(0.374936 -2.75015e-16 0)
(0.374936 -2.53846e-16 0)
(0.374936 -2.0936e-16 0)
(0.374936 -1.28824e-16 0)
(0.374936 -6.39481e-17 0)
(0.374936 1.83848e-17 0)
(0.374936 4.56264e-17 0)
(0.374936 8.75562e-17 0)
(0.374936 1.079e-16 0)
(0.374936 1.16586e-16 0)
(0.424933 1.30736e-16 0)
(0.424933 8.75736e-17 0)
(0.424933 4.34388e-17 0)
(0.424933 -2.36742e-17 0)
(0.424933 -6.9351e-17 0)
(0.424933 -5.78822e-17 0)
(0.424933 -9.34452e-17 0)
(0.424933 -1.37185e-16 0)
(0.424933 -1.9805e-16 0)
(0.424933 -2.56116e-16 0)
(0.424933 -2.98706e-16 0)
(0.424933 -2.48385e-16 0)
(0.424933 -1.95837e-16 0)
(0.424933 -1.19882e-16 0)
(0.424933 -2.92028e-17 0)
(0.424933 2.57881e-17 0)
(0.424933 4.17683e-17 0)
(0.424933 7.52927e-17 0)
(0.424933 1.40268e-16 0)
(0.424933 1.62587e-16 0)
(0.474931 1.8309e-16 0)
(0.474931 1.41026e-16 0)
(0.474931 5.81579e-17 0)
(0.474931 -3.08021e-17 0)
(0.474931 -8.94566e-17 0)
(0.474931 -8.45419e-17 0)
(0.474931 -1.30113e-16 0)
(0.474931 -1.77819e-16 0)
(0.474931 -2.44991e-16 0)
(0.474931 -2.72174e-16 0)
(0.474931 -2.46163e-16 0)
(0.474931 -2.30504e-16 0)
(0.474931 -1.80443e-16 0)
(0.474931 -1.00951e-16 0)
(0.474931 -4.80849e-17 0)
(0.474931 -4.0972e-18 0)
(0.474931 3.88121e-17 0)
(0.474931 7.57992e-17 0)
(0.474931 1.37795e-16 0)
(0.474931 1.87602e-16 0)
(0.524931 1.7968e-16 0)
(0.524931 1.63116e-16 0)
(0.524931 7.14173e-17 0)
(0.524931 -7.20137e-18 0)
(0.524931 -5.1834e-17 0)
(0.524931 -7.21654e-17 0)
(0.524931 -1.46926e-16 0)
(0.524931 -2.11157e-16 0)
(0.524931 -2.66561e-16 0)
(0.524931 -2.68189e-16 0)
(0.524931 -2.29421e-16 0)
(0.524931 -1.73029e-16 0)
(0.524931 -1.29378e-16 0)
(0.524931 -1.21365e-16 0)
(0.524931 -5.15994e-17 0)
(0.524931 -1.1896e-17 0)
(0.524931 4.7532e-17 0)
(0.524931 8.58463e-17 0)
(0.524931 1.30348e-16 0)
(0.524931 1.82362e-16 0)
(0.574933 1.45841e-16 0)
(0.574933 1.16282e-16 0)
(0.574933 6.78715e-17 0)
(0.574933 -1.97857e-18 0)
(0.574933 -1.59135e-17 0)
(0.574933 -8.34699e-17 0)
(0.574933 -1.76446e-16 0)
(0.574933 -2.51094e-16 0)
(0.574933 -2.81922e-16 0)
(0.574933 -2.69374e-16 0)
(0.574933 -1.96943e-16 0)
(0.574933 -9.04405e-17 0)
(0.574933 -2.38802e-17 0)
(0.574933 -7.62943e-17 0)
(0.574933 -1.56883e-17 0)
(0.574933 -4.03255e-18 0)
(0.574933 4.7335e-17 0)
(0.574933 9.92921e-17 0)
(0.574933 1.05417e-16 0)
(0.574933 1.03922e-16 0)
(0.624936 6.6615e-17 0)
(0.624936 7.32051e-17 0)
(0.624936 4.18075e-17 0)
(0.624936 -3.17656e-17 0)
(0.624936 -7.21662e-17 0)
(0.624936 -1.85084e-16 0)
(0.624936 -2.72002e-16 0)
(0.624936 -3.12263e-16 0)
(0.624936 -2.8667e-16 0)
(0.624936 -2.17725e-16 0)
(0.624936 -1.26432e-16 0)
(0.624936 -9.04116e-18 0)
(0.624936 7.52742e-17 0)
(0.624936 9.63428e-17 0)
(0.624936 7.95896e-17 0)
(0.624936 7.93527e-17 0)
(0.624936 4.99537e-17 0)
(0.624936 6.67953e-17 0)
(0.624936 7.54147e-17 0)
(0.624936 2.99826e-17 0)
(0.674941 1.30067e-17 0)
(0.674941 2.06428e-17 0)
(0.674941 -4.7005e-17 0)
(0.674941 -4.93031e-17 0)
(0.674941 -1.32062e-16 0)
(0.674941 -2.34892e-16 0)
(0.674941 -3.39524e-16 0)
(0.674941 -3.72677e-16 0)
(0.674941 -2.893e-16 0)
(0.674941 -1.59487e-16 0)
(0.674941 -4.81803e-17 0)
(0.674941 5.30016e-17 0)
(0.674941 8.54822e-17 0)
(0.674941 1.71797e-16 0)
(0.674941 1.64793e-16 0)
(0.674941 1.71899e-16 0)
(0.674941 1.11398e-16 0)
(0.674941 6.70746e-17 0)
(0.674941 6.46513e-17 0)
(0.674941 1.46557e-17 0)
(0.724947 -8.13183e-18 0)
(0.724947 -2.40167e-17 0)
(0.724947 -5.08103e-17 0)
(0.724947 -7.87493e-17 0)
(0.724947 -1.50096e-16 0)
(0.724947 -2.52326e-16 0)
(0.724947 -3.71975e-16 0)
(0.724947 -4.1477e-16 0)
(0.724947 -3.60733e-16 0)
(0.724947 -1.89241e-16 0)
(0.724947 -3.22559e-17 0)
(0.724947 7.50432e-17 0)
(0.724947 1.53286e-16 0)
(0.724947 1.99445e-16 0)
(0.724947 2.10371e-16 0)
(0.724947 1.84391e-16 0)
(0.724947 1.60021e-16 0)
(0.724947 1.0985e-16 0)
(0.724947 4.66117e-17 0)
(0.724947 8.5529e-18 0)
(0.774955 2.60629e-17 0)
(0.774955 -1.65892e-17 0)
(0.774955 9.26065e-18 0)
(0.774955 -6.38458e-17 0)
(0.774955 -1.33228e-16 0)
(0.774955 -3.32173e-16 0)
(0.774955 -4.09031e-16 0)
(0.774955 -4.25663e-16 0)
(0.774955 -3.57531e-16 0)
(0.774955 -2.31567e-16 0)
(0.774955 -7.045e-17 0)
(0.774955 1.41143e-16 0)
(0.774955 2.39813e-16 0)
(0.774955 2.68448e-16 0)
(0.774955 2.20629e-16 0)
(0.774955 1.52216e-16 0)
(0.774955 1.2762e-16 0)
(0.774955 6.32954e-17 0)
(0.774955 1.11237e-17 0)
(0.774955 5.32878e-17 0)
(0.824964 4.11015e-17 0)
(0.824964 3.66555e-17 0)
(0.824964 3.76648e-17 0)
(0.824964 1.39223e-17 0)
(0.824964 -1.36575e-16 0)
(0.824964 -3.0515e-16 0)
(0.824964 -3.94436e-16 0)
(0.824964 -3.52424e-16 0)
(0.824964 -2.65769e-16 0)
(0.824964 -2.36195e-16 0)
(0.824964 -7.97947e-17 0)
(0.824964 9.97653e-17 0)
(0.824964 2.54585e-16 0)
(0.824964 2.61952e-16 0)
(0.824964 1.78188e-16 0)
(0.824964 1.16947e-16 0)
(0.824964 7.40548e-17 0)
(0.824964 -1.0555e-17 0)
(0.824964 -2.91547e-17 0)
(0.824964 2.07076e-17 0)
(0.874973 2.90555e-17 0)
(0.874973 7.72283e-17 0)
(0.874973 8.01186e-17 0)
(0.874973 4.24338e-17 0)
(0.874973 -1.38465e-16 0)
(0.874973 -2.55324e-16 0)
(0.874973 -3.13675e-16 0)
(0.874973 -2.83179e-16 0)
(0.874973 -1.95601e-16 0)
(0.874973 -1.21735e-16 0)
(0.874973 -2.58722e-17 0)
(0.874973 7.37021e-17 0)
(0.874973 2.01581e-16 0)
(0.874973 1.90056e-16 0)
(0.874973 1.24137e-16 0)
(0.874973 7.29899e-17 0)
(0.874973 3.2222e-17 0)
(0.874973 3.21467e-17 0)
(0.874973 -2.95161e-17 0)
(0.874973 -5.80089e-17 0)
(0.924984 1.31555e-17 0)
(0.924984 5.39917e-17 0)
(0.924984 1.20766e-16 0)
(0.924984 6.82007e-17 0)
(0.924984 -1.30711e-16 0)
(0.924984 -1.75266e-16 0)
(0.924984 -2.16827e-16 0)
(0.924984 -1.76596e-16 0)
(0.924984 -7.82013e-17 0)
(0.924984 -2.8615e-18 0)
(0.924984 3.23724e-17 0)
(0.924984 3.97795e-17 0)
(0.924984 1.11471e-16 0)
(0.924984 9.44567e-17 0)
(0.924984 4.65596e-17 0)
(0.924984 2.62627e-17 0)
(0.924984 2.5581e-17 0)
(0.924984 7.72151e-17 0)
(0.924984 4.28066e-17 0)
(0.924984 -1.34933e-19 0)
(0.974995 3.1946e-18 0)
(0.974995 1.47182e-17 0)
(0.974995 6.24749e-17 0)
(0.974995 5.01273e-17 0)
(0.974995 -6.09557e-17 0)
(0.974995 -4.22179e-17 0)
(0.974995 -8.36109e-17 0)
(0.974995 -6.81857e-17 0)
(0.974995 -7.92956e-18 0)
(0.974995 1.52591e-18 0)
(0.974995 1.65449e-17 0)
(0.974995 -2.09785e-17 0)
(0.974995 3.17074e-17 0)
(0.974995 1.85316e-17 0)
(0.974995 1.19402e-17 0)
(0.974995 1.57753e-17 0)
(0.974995 1.31086e-17 0)
(0.974995 3.75564e-17 0)
(0.974995 4.91166e-17 0)
(0.974995 2.94484e-17 0)
)
;

boundaryField
{
    movingWall
    {
        type            fixedValue;
        value           uniform (1 0 0);
    }
    fixedWalls
    {
        type            noSlip;
    }
    left
    {
        type            cyclic;
    }
    right
    {
        type            cyclic;
    }
    frontAndBack
    {
        type            empty;
    }
}


// ************************************************************************* //
