0 	0 	0 	0
1.57135 	-0.00193957 	0.00192923 	0
3.1427 	-0.00409253 	0.00404642 	0
4.71405 	-0.00641135 	0.0062834 	0
6.28539 	-0.00905542 	0.00931935 	0
7.85674 	-0.0111439 	0.015542 	0
9.42809 	-0.00396337 	0.0279023 	0
10.9994 	0.0207258 	0.0195134 	0
12.5708 	0.0124009 	0.00204955 	0
14.1421 	0.5 	0 	0
