/*--------------------------------*- C++ -*----------------------------------*\
  =========                 |
  \\      /  F ield         | OpenFOAM: The Open Source CFD Toolbox
   \\    /   O peration     | Website:  https://openfoam.org
    \\  /    A nd           | Version:  8
     \\/     M anipulation  |
\*---------------------------------------------------------------------------*/
FoamFile
{
    version     2.0;
    format      ascii;
    class       volScalarField;
    location    "0.455";
    object      p;
}
// * * * * * * * * * * * * * * * * * * * * * * * * * * * * * * * * * * * * * //

dimensions      [0 2 -2 0 0 0 0];

internalField   nonuniform List<scalar> 
400
(
4.30736e-06
-0.0058225
-0.0129601
-0.0184123
-0.0204299
-0.0182362
-0.0117718
-0.00148169
0.0118393
0.0271509
0.0432461
0.0588245
0.07258
0.0833098
0.0900541
0.0922684
0.0900274
0.0842456
0.0768825
0.0710691
0.00578323
-0.000215784
-0.00580157
-0.0095402
-0.0105967
-0.00843052
-0.00296788
0.00547604
0.0163047
0.0287134
0.0417514
0.0543876
0.065588
0.0744115
0.0801218
0.0823173
0.081079
0.0770567
0.0712761
0.0653199
0.0133373
0.00503587
-0.000993133
-0.00442095
-0.0052708
-0.00326188
0.00160429
0.0090294
0.0185038
0.0293509
0.040767
0.0518713
0.0617702
0.0696381
0.0748087
0.0768798
0.0758434
0.0720878
0.0658075
0.0575377
0.0201414
0.00869799
0.0012279
-0.00266651
-0.00372012
-0.00188335
0.00273317
0.00978636
0.0187821
0.0290966
0.0399936
0.0506557
0.0602346
0.0679177
0.073005
0.0750033
0.0737677
0.069458
0.061605
0.0501048
0.0245039
0.00977507
0.000591767
-0.00398493
-0.00530028
-0.00350541
0.00117662
0.00833638
0.0174637
0.0279507
0.0390866
0.0500716
0.0600506
0.0681669
0.0736282
0.0757996
0.0743709
0.0692918
0.0595277
0.0445394
0.0251797
0.00715199
-0.0038
-0.00905518
-0.0105101
-0.00849801
-0.00335487
0.00443134
0.0143152
0.0256808
0.0378155
0.049905
0.0610498
0.0703049
0.0767365
0.0795188
0.0781409
0.0723356
0.0605414
0.0418924
0.0210953
-0.000260369
-0.0129324
-0.0187072
-0.0200277
-0.0174118
-0.0113163
-0.00231763
0.00899248
0.0219782
0.0359116
0.0499462
0.063114
0.0743471
0.0825238
0.0865715
0.0857228
0.0794492
0.0656226
0.0430741
0.0111447
-0.0136161
-0.0278729
-0.033852
-0.0346012
-0.0308552
-0.0232106
-0.012343
0.00110709
0.0164861
0.0330547
0.0499357
0.0660854
0.0802919
0.0912027
0.0974321
0.0978724
0.0916383
0.0758986
0.0491189
-0.00596507
-0.0342643
-0.0498678
-0.0555462
-0.0550877
-0.0495121
-0.0395911
-0.0261109
-0.00975469
0.00882543
0.0289034
0.0495959
0.0697998
0.0881567
0.10305
0.112703
0.115553
0.110194
0.0928366
0.0614139
-0.0318548
-0.0638738
-0.0804145
-0.0850047
-0.0824175
-0.0740757
-0.0609783
-0.044034
-0.0239489
-0.00133428
0.0231482
0.0486636
0.0740982
0.0979747
0.118398
0.133128
0.139991
0.13682
0.118443
0.0819363
-0.0686646
-0.104601
-0.121342
-0.123587
-0.117513
-0.105124
-0.0877154
-0.0663227
-0.0416342
-0.0141528
0.0156084
0.046956
0.0788585
0.109796
0.137626
0.159588
0.172729
0.17378
0.155523
0.113573
-0.119399
-0.159354
-0.174912
-0.172754
-0.161145
-0.142926
-0.119756
-0.0927739
-0.0625744
-0.0294446
0.00637611
0.0444765
0.0840581
0.123706
0.161139
0.193089
0.215671
0.224079
0.208053
0.160635
-0.188625
-0.232239
-0.243935
-0.233945
-0.213691
-0.187151
-0.156369
-0.122498
-0.0858945
-0.0464688
-0.00401118
0.041542
0.0898453
0.139832
0.189322
0.234692
0.271077
0.291667
0.281745
0.229778
-0.283971
-0.329301
-0.331828
-0.308277
-0.274705
-0.236436
-0.195761
-0.153606
-0.109836
-0.0637414
-0.0144342
0.038867
0.0965577
0.15828
0.222377
0.285291
0.3414
0.381578
0.384917
0.331837
-0.419314
-0.459667
-0.442347
-0.395788
-0.342125
-0.287736
-0.234612
-0.182926
-0.131605
-0.0789808
-0.0232098
0.0374794
0.104557
0.178842
0.259865
0.344974
0.42862
0.499703
0.529678
0.485394
-0.620527
-0.636739
-0.578673
-0.494189
-0.411236
-0.335654
-0.267776
-0.205973
-0.147532
-0.0893785
-0.0284215
0.0383529
0.113811
0.200476
0.299979
0.412029
0.533033
0.651779
0.732775
0.722399
-0.935919
-0.878511
-0.741737
-0.597944
-0.474389
-0.372655
-0.288864
-0.217758
-0.153949
-0.0924592
-0.0287125
0.0417005
0.123268
0.220723
0.33893
0.482159
0.652001
0.841346
1.01527
1.09751
-1.47642
-1.20663
-0.920499
-0.691384
-0.517301
-0.38754
-0.290057
-0.213333
-0.148119
-0.0872107
-0.0245728
0.0454624
0.128942
0.233076
0.367108
0.542683
0.771297
1.05932
1.40329
1.73015
-2.53964
-1.63054
-1.04443
-0.710955
-0.495746
-0.352089
-0.254526
-0.183579
-0.126165
-0.0735904
-0.0192642
0.0427917
0.119217
0.218787
0.354817
0.547988
0.826397
1.23659
1.91168
2.9242
-4.36666
-2.04463
-0.973538
-0.563177
-0.357842
-0.240143
-0.170115
-0.123779
-0.0874769
-0.0535056
-0.0166496
0.0276656
0.0846124
0.161735
0.272416
0.442104
0.718223
1.22571
2.41104
4.84854
)
;

boundaryField
{
    movingWall
    {
        type            zeroGradient;
    }
    fixedWalls
    {
        type            zeroGradient;
    }
    frontAndBack
    {
        type            empty;
    }
}


// ************************************************************************* //
