/*--------------------------------*- C++ -*----------------------------------*\
  =========                 |
  \\      /  F ield         | OpenFOAM: The Open Source CFD Toolbox
   \\    /   O peration     | Website:  https://openfoam.org
    \\  /    A nd           | Version:  8
     \\/     M anipulation  |
\*---------------------------------------------------------------------------*/
FoamFile
{
    version     2.0;
    format      ascii;
    class       volVectorField;
    location    "18";
    object      U;
}
// * * * * * * * * * * * * * * * * * * * * * * * * * * * * * * * * * * * * * //

dimensions      [0 1 -1 0 0 0 0];

internalField   nonuniform List<vector> 
11600
(
(-2.37577e-06 2.33011e-06 0)
(-2.87832e-05 1.03727e-05 0)
(-7.27789e-05 1.27499e-05 0)
(-0.000114905 1.3183e-05 0)
(-0.000158927 1.3144e-05 0)
(-0.000202538 1.30699e-05 0)
(-0.00024599 1.30234e-05 0)
(-0.000289316 1.29906e-05 0)
(-0.000332498 1.29614e-05 0)
(-0.00037552 1.29314e-05 0)
(-0.000418361 1.28985e-05 0)
(-0.000461003 1.28617e-05 0)
(-0.000503423 1.28207e-05 0)
(-0.0005456 1.27751e-05 0)
(-0.000587511 1.27248e-05 0)
(-0.000629135 1.26694e-05 0)
(-0.000670448 1.2609e-05 0)
(-0.000711428 1.25433e-05 0)
(-0.000752053 1.24721e-05 0)
(-0.000792298 1.23953e-05 0)
(-0.000832142 1.23127e-05 0)
(-0.00087156 1.22242e-05 0)
(-0.00091053 1.21296e-05 0)
(-0.000949028 1.20288e-05 0)
(-0.000987032 1.19216e-05 0)
(-0.00102452 1.18078e-05 0)
(-0.00106146 1.16875e-05 0)
(-0.00109784 1.15604e-05 0)
(-0.00113363 1.14266e-05 0)
(-0.00116881 1.1286e-05 0)
(-0.00120337 1.11387e-05 0)
(-0.00123727 1.09848e-05 0)
(-0.0012705 1.08244e-05 0)
(-0.00130304 1.06578e-05 0)
(-0.00133488 1.04854e-05 0)
(-0.00136599 1.03078e-05 0)
(-0.00139638 1.01256e-05 0)
(-0.00142602 9.93973e-06 0)
(-0.00145492 9.75149e-06 0)
(-0.00148308 9.56244e-06 0)
(-0.0015105 9.37459e-06 0)
(-0.0015372 9.19057e-06 0)
(-0.0015632 9.01371e-06 0)
(-0.00158855 8.84831e-06 0)
(-0.00161331 8.69991e-06 0)
(-0.00163756 8.57563e-06 0)
(-0.00166141 8.48465e-06 0)
(-0.00168501 8.43876e-06 0)
(-0.00170857 8.453e-06 0)
(-0.00173238 8.54611e-06 0)
(-0.00175685 8.7407e-06 0)
(-0.00178253 9.06318e-06 0)
(-0.00181021 9.54416e-06 0)
(-0.00184112 1.02215e-05 0)
(-0.00187748 1.11894e-05 0)
(-0.00192141 1.30627e-05 0)
(-0.00197118 1.86467e-05 0)
(-0.00209301 3.7017e-05 0)
(-0.00213999 0.000172054 0)
(-0.0027836 0.000609143 0)
(-1.05367e-05 2.88351e-05 0)
(-6.32658e-05 6.29233e-05 0)
(-0.00014207 7.3208e-05 0)
(-0.000218429 7.54328e-05 0)
(-0.000297663 7.56136e-05 0)
(-0.000376492 7.54382e-05 0)
(-0.000455081 7.52151e-05 0)
(-0.000533425 7.49665e-05 0)
(-0.000611457 7.46867e-05 0)
(-0.000689125 7.43714e-05 0)
(-0.000766382 7.40183e-05 0)
(-0.000843181 7.36261e-05 0)
(-0.000919473 7.31942e-05 0)
(-0.000995212 7.27221e-05 0)
(-0.00107035 7.22095e-05 0)
(-0.00114484 7.16563e-05 0)
(-0.00121863 7.10621e-05 0)
(-0.00129168 7.04269e-05 0)
(-0.00136394 6.97505e-05 0)
(-0.00143537 6.90328e-05 0)
(-0.00150591 6.82738e-05 0)
(-0.00157552 6.74734e-05 0)
(-0.00164415 6.66317e-05 0)
(-0.00171177 6.57488e-05 0)
(-0.00177832 6.48249e-05 0)
(-0.00184376 6.38605e-05 0)
(-0.00190805 6.28558e-05 0)
(-0.00197114 6.18117e-05 0)
(-0.002033 6.07289e-05 0)
(-0.00209359 5.96085e-05 0)
(-0.00215286 5.8452e-05 0)
(-0.00221078 5.72611e-05 0)
(-0.00226732 5.6038e-05 0)
(-0.00232245 5.47856e-05 0)
(-0.00237614 5.35073e-05 0)
(-0.00242838 5.22075e-05 0)
(-0.00247913 5.08916e-05 0)
(-0.0025284 4.95662e-05 0)
(-0.00257618 4.82398e-05 0)
(-0.00262249 4.69229e-05 0)
(-0.00266733 4.56286e-05 0)
(-0.00271075 4.43739e-05 0)
(-0.00275281 4.318e-05 0)
(-0.00279358 4.20747e-05 0)
(-0.00283318 4.1094e-05 0)
(-0.00287176 4.02853e-05 0)
(-0.00290954 3.97125e-05 0)
(-0.00294681 3.94631e-05 0)
(-0.00298395 3.96589e-05 0)
(-0.00302152 4.04744e-05 0)
(-0.00306025 4.2166e-05 0)
(-0.00310124 4.51249e-05 0)
(-0.00314601 4.99687e-05 0)
(-0.00319698 5.77124e-05 0)
(-0.00325794 7.01845e-05 0)
(-0.00333306 9.12317e-05 0)
(-0.00342962 0.000128495 0)
(-0.00358991 0.000197467 0)
(-0.00371458 0.00041125 0)
(-0.00410475 0.000751587 0)
(-1.30086e-05 7.32399e-05 0)
(-7.39628e-05 0.000141914 0)
(-0.000163571 0.000162612 0)
(-0.000250227 0.000167186 0)
(-0.000339912 0.000167709 0)
(-0.000429125 0.000167409 0)
(-0.000518042 0.000166913 0)
(-0.000606659 0.000166312 0)
(-0.000694901 0.000165617 0)
(-0.000782707 0.000164826 0)
(-0.000870021 0.000163938 0)
(-0.000956787 0.000162954 0)
(-0.00104295 0.000161872 0)
(-0.00112845 0.000160693 0)
(-0.00121323 0.000159415 0)
(-0.00129724 0.00015804 0)
(-0.00138043 0.000156567 0)
(-0.00146273 0.000154996 0)
(-0.00154409 0.000153328 0)
(-0.00162447 0.000151563 0)
(-0.00170379 0.0001497 0)
(-0.00178202 0.000147742 0)
(-0.00185909 0.000145689 0)
(-0.00193496 0.00014354 0)
(-0.00200958 0.000141299 0)
(-0.00208289 0.000138965 0)
(-0.00215484 0.000136541 0)
(-0.00222539 0.000134029 0)
(-0.00229449 0.000131432 0)
(-0.0023621 0.000128752 0)
(-0.00242817 0.000125993 0)
(-0.00249266 0.00012316 0)
(-0.00255554 0.000120259 0)
(-0.00261677 0.000117296 0)
(-0.00267633 0.00011428 0)
(-0.00273418 0.000111222 0)
(-0.00279031 0.000108132 0)
(-0.00284471 0.000105028 0)
(-0.00289737 0.000101927 0)
(-0.00294831 9.88543e-05 0)
(-0.00299754 9.58381e-05 0)
(-0.00304511 9.29158e-05 0)
(-0.00309106 9.01343e-05 0)
(-0.00313549 8.75541e-05 0)
(-0.00317851 8.52534e-05 0)
(-0.00322028 8.33351e-05 0)
(-0.003261 8.19366e-05 0)
(-0.00330097 8.12446e-05 0)
(-0.00334056 8.15182e-05 0)
(-0.00338025 8.31241e-05 0)
(-0.00342073 8.65951e-05 0)
(-0.00346288 9.27288e-05 0)
(-0.00350789 0.000102754 0)
(-0.00355742 0.000118628 0)
(-0.00361369 0.000143676 0)
(-0.0036786 0.000183847 0)
(-0.00375599 0.000248632 0)
(-0.00385934 0.000357149 0)
(-0.00392258 0.00057599 0)
(-0.00406054 0.000872539 0)
(-1.34917e-05 0.00011597 0)
(-7.64922e-05 0.000218799 0)
(-0.000168819 0.000249455 0)
(-0.000257875 0.00025608 0)
(-0.000350017 0.000256806 0)
(-0.00044165 0.000256328 0)
(-0.000532973 0.000255546 0)
(-0.000623988 0.000254595 0)
(-0.000714615 0.000253491 0)
(-0.00080479 0.000252234 0)
(-0.000894453 0.000250825 0)
(-0.000983547 0.000249262 0)
(-0.00107201 0.000247546 0)
(-0.00115979 0.000245675 0)
(-0.00124682 0.000243651 0)
(-0.00133305 0.000241474 0)
(-0.00141843 0.000239143 0)
(-0.00150288 0.000236659 0)
(-0.00158636 0.000234024 0)
(-0.00166881 0.000231237 0)
(-0.00175017 0.000228299 0)
(-0.00183039 0.000225213 0)
(-0.00190942 0.000221978 0)
(-0.00198719 0.000218597 0)
(-0.00206366 0.000215072 0)
(-0.00213878 0.000211405 0)
(-0.00221249 0.000207599 0)
(-0.00228475 0.000203658 0)
(-0.0023555 0.000199585 0)
(-0.0024247 0.000195386 0)
(-0.00249231 0.000191067 0)
(-0.00255828 0.000186635 0)
(-0.00262257 0.000182099 0)
(-0.00268515 0.000177469 0)
(-0.00274599 0.000172758 0)
(-0.00280506 0.000167982 0)
(-0.00286233 0.000163159 0)
(-0.0029178 0.000158312 0)
(-0.00297146 0.000153469 0)
(-0.0030233 0.000148666 0)
(-0.00307335 0.000143945 0)
(-0.00312162 0.000139361 0)
(-0.00316818 0.000134981 0)
(-0.00321309 0.000130892 0)
(-0.00325644 0.000127206 0)
(-0.00329836 0.000124067 0)
(-0.00333903 0.000121665 0)
(-0.00337866 0.000120256 0)
(-0.00341756 0.000120185 0)
(-0.00345609 0.000121927 0)
(-0.00349472 0.000126148 0)
(-0.00353406 0.000133805 0)
(-0.00357482 0.000146284 0)
(-0.00361782 0.000165652 0)
(-0.00366384 0.000195094 0)
(-0.0037129 0.000239558 0)
(-0.00376485 0.000306066 0)
(-0.00381763 0.000407268 0)
(-0.00383463 0.000572535 0)
(-0.00384217 0.000769414 0)
(-1.34833e-05 0.000160741 0)
(-7.69558e-05 0.000298854 0)
(-0.00017003 0.000339659 0)
(-0.000259681 0.00034839 0)
(-0.000352457 0.000349339 0)
(-0.000444697 0.000348688 0)
(-0.00053662 0.000347614 0)
(-0.000628231 0.0003463 0)
(-0.00071945 0.00034477 0)
(-0.000810215 0.000343026 0)
(-0.000900464 0.000341069 0)
(-0.000990139 0.000338899 0)
(-0.00107918 0.000336516 0)
(-0.00116753 0.00033392 0)
(-0.00125513 0.000331112 0)
(-0.00134192 0.000328092 0)
(-0.00142784 0.00032486 0)
(-0.00151284 0.000321418 0)
(-0.00159686 0.000317767 0)
(-0.00167983 0.000313908 0)
(-0.00176171 0.000309842 0)
(-0.00184245 0.000305571 0)
(-0.00192197 0.000301097 0)
(-0.00200024 0.000296423 0)
(-0.00207719 0.000291551 0)
(-0.00215277 0.000286485 0)
(-0.00222693 0.000281229 0)
(-0.00229962 0.000275788 0)
(-0.0023708 0.000270167 0)
(-0.00244041 0.000264374 0)
(-0.0025084 0.000258417 0)
(-0.00257474 0.000252305 0)
(-0.00263938 0.00024605 0)
(-0.00270229 0.000239666 0)
(-0.00276342 0.00023317 0)
(-0.00282276 0.000226583 0)
(-0.00288026 0.000219928 0)
(-0.00293592 0.000213236 0)
(-0.00298972 0.000206543 0)
(-0.00304166 0.000199894 0)
(-0.00309173 0.000193344 0)
(-0.00313996 0.000186961 0)
(-0.00318636 0.000180832 0)
(-0.003231 0.000175063 0)
(-0.00327393 0.000169794 0)
(-0.00331523 0.000165199 0)
(-0.00335503 0.000161509 0)
(-0.00339346 0.000159024 0)
(-0.00343069 0.000158144 0)
(-0.00346693 0.000159408 0)
(-0.0035024 0.000163547 0)
(-0.00353732 0.000171571 0)
(-0.00357187 0.000184887 0)
(-0.00360603 0.000205466 0)
(-0.00363938 0.000236093 0)
(-0.00367054 0.000280595 0)
(-0.00369699 0.000343856 0)
(-0.00371264 0.000433041 0)
(-0.00369785 0.000557442 0)
(-0.00365326 0.000698682 0)
(-1.34371e-05 0.000205268 0)
(-7.71049e-05 0.000378882 0)
(-0.00017055 0.000429841 0)
(-0.000260503 0.000440657 0)
(-0.00035361 0.00044181 0)
(-0.000446163 0.000440973 0)
(-0.000538397 0.000439602 0)
(-0.000630315 0.000437925 0)
(-0.00072184 0.000435969 0)
(-0.00081291 0.00043374 0)
(-0.000903463 0.000431238 0)
(-0.000993442 0.000428463 0)
(-0.00108279 0.000425417 0)
(-0.00117144 0.000422098 0)
(-0.00125933 0.000418509 0)
(-0.00134642 0.000414649 0)
(-0.00143264 0.00041052 0)
(-0.00151793 0.000406124 0)
(-0.00160224 0.00040146 0)
(-0.0016855 0.000396532 0)
(-0.00176767 0.000391341 0)
(-0.00184868 0.000385889 0)
(-0.00192849 0.000380179 0)
(-0.00200702 0.000374214 0)
(-0.00208424 0.000367998 0)
(-0.00216009 0.000361535 0)
(-0.0022345 0.000354831 0)
(-0.00230745 0.00034789 0)
(-0.00237886 0.000340722 0)
(-0.0024487 0.000333333 0)
(-0.00251691 0.000325734 0)
(-0.00258345 0.000317937 0)
(-0.00264828 0.000309956 0)
(-0.00271136 0.000301809 0)
(-0.00277264 0.000293514 0)
(-0.00283209 0.000285098 0)
(-0.00288969 0.000276588 0)
(-0.0029454 0.000268021 0)
(-0.00299921 0.000259439 0)
(-0.00305109 0.000250894 0)
(-0.00310104 0.000242451 0)
(-0.00314906 0.000234188 0)
(-0.00319516 0.000226204 0)
(-0.00323935 0.00021862 0)
(-0.00328167 0.000211588 0)
(-0.00332214 0.000205303 0)
(-0.00336083 0.000200012 0)
(-0.00339778 0.000196029 0)
(-0.00343306 0.000193767 0)
(-0.00346672 0.000193756 0)
(-0.00349875 0.000196694 0)
(-0.00352909 0.000203496 0)
(-0.00355752 0.00021536 0)
(-0.00358352 0.000233845 0)
(-0.00360602 0.000260952 0)
(-0.00362309 0.000299104 0)
(-0.00363148 0.000350967 0)
(-0.00362524 0.000419529 0)
(-0.00359327 0.000506106 0)
(-0.00352994 0.000600599 0)
(-1.34251e-05 0.000249823 0)
(-7.72778e-05 0.000459108 0)
(-0.000171055 0.00052025 0)
(-0.000261309 0.00053316 0)
(-0.000354742 0.000534512 0)
(-0.000447613 0.000533485 0)
(-0.000540161 0.000531816 0)
(-0.000632392 0.000529773 0)
(-0.00072423 0.000527392 0)
(-0.000815611 0.000524677 0)
(-0.000906475 0.000521629 0)
(-0.000996763 0.00051825 0)
(-0.00108642 0.000514539 0)
(-0.00117537 0.000510497 0)
(-0.00126358 0.000506126 0)
(-0.00135097 0.000501427 0)
(-0.0014375 0.0004964 0)
(-0.00152309 0.000491047 0)
(-0.0016077 0.00048537 0)
(-0.00169126 0.000479372 0)
(-0.00177373 0.000473053 0)
(-0.00185503 0.000466418 0)
(-0.00193513 0.000459469 0)
(-0.00201395 0.000452211 0)
(-0.00209145 0.000444647 0)
(-0.00216757 0.000436782 0)
(-0.00224226 0.000428623 0)
(-0.00231546 0.000420177 0)
(-0.00238713 0.000411452 0)
(-0.00245721 0.000402458 0)
(-0.00252566 0.000393207 0)
(-0.00259242 0.000383712 0)
(-0.00265745 0.000373989 0)
(-0.0027207 0.000364058 0)
(-0.00278214 0.000353941 0)
(-0.00284172 0.000343667 0)
(-0.00289941 0.000333268 0)
(-0.00295517 0.000322783 0)
(-0.00300897 0.00031226 0)
(-0.00306079 0.000301756 0)
(-0.00311061 0.000291341 0)
(-0.0031584 0.0002811 0)
(-0.00320415 0.000271138 0)
(-0.00324785 0.000261583 0)
(-0.0032895 0.000252593 0)
(-0.00332908 0.000244366 0)
(-0.00336659 0.000237149 0)
(-0.00340201 0.000231252 0)
(-0.00343529 0.000227062 0)
(-0.00346635 0.000225069 0)
(-0.00349503 0.000225889 0)
(-0.00352106 0.000230291 0)
(-0.00354395 0.000239224 0)
(-0.00356292 0.000253831 0)
(-0.00357667 0.000275432 0)
(-0.00358318 0.000305411 0)
(-0.00357941 0.000344976 0)
(-0.00356071 0.000394784 0)
(-0.00352043 0.000453427 0)
(-0.00345374 0.000514434 0)
(-1.34351e-05 0.000294485 0)
(-7.75043e-05 0.000539628 0)
(-0.000171649 0.000611003 0)
(-0.000262254 0.00062602 0)
(-0.000356061 0.000627573 0)
(-0.0004493 0.000626353 0)
(-0.000542215 0.000624384 0)
(-0.000634812 0.000621975 0)
(-0.000727015 0.000619167 0)
(-0.000818759 0.000615965 0)
(-0.000909986 0.000612371 0)
(-0.00100064 0.000608386 0)
(-0.00109065 0.00060401 0)
(-0.00117997 0.000599244 0)
(-0.00126853 0.00059409 0)
(-0.00135629 0.000588549 0)
(-0.00144317 0.000582622 0)
(-0.00152911 0.000576311 0)
(-0.00161408 0.000569619 0)
(-0.00169799 0.000562547 0)
(-0.0017808 0.000555098 0)
(-0.00186245 0.000547276 0)
(-0.00194288 0.000539084 0)
(-0.00202204 0.000530527 0)
(-0.00209987 0.000521609 0)
(-0.00217632 0.000512337 0)
(-0.00225133 0.000502716 0)
(-0.00232484 0.000492755 0)
(-0.00239681 0.000482464 0)
(-0.00246718 0.000471852 0)
(-0.0025359 0.000460934 0)
(-0.00260291 0.000449723 0)
(-0.00266818 0.000438238 0)
(-0.00273166 0.0004265 0)
(-0.00279329 0.000414533 0)
(-0.00285303 0.000402368 0)
(-0.00291084 0.000390038 0)
(-0.00296668 0.000377587 0)
(-0.00302051 0.000365064 0)
(-0.00307228 0.000352529 0)
(-0.00312198 0.000340056 0)
(-0.00316955 0.00032773 0)
(-0.00321496 0.000315659 0)
(-0.00325818 0.00030397 0)
(-0.00329917 0.00029282 0)
(-0.00333787 0.000282399 0)
(-0.00337423 0.000272941 0)
(-0.00340816 0.000264731 0)
(-0.00343954 0.000258115 0)
(-0.00346819 0.000253515 0)
(-0.00349383 0.000251439 0)
(-0.00351606 0.000252488 0)
(-0.00353429 0.000257353 0)
(-0.00354762 0.000266798 0)
(-0.00355476 0.000281595 0)
(-0.00355388 0.000302388 0)
(-0.00354248 0.000329453 0)
(-0.00351721 0.000362333 0)
(-0.00347409 0.000398958 0)
(-0.00341003 0.000434598 0)
(-1.34572e-05 0.00033928 0)
(-7.77801e-05 0.000620471 0)
(-0.000172347 0.000702137 0)
(-0.000263359 0.000719279 0)
(-0.000357596 0.000721034 0)
(-0.000451261 0.000719622 0)
(-0.000544601 0.000717351 0)
(-0.000637623 0.000714574 0)
(-0.000730249 0.000711339 0)
(-0.000822416 0.00070765 0)
(-0.000914065 0.000703508 0)
(-0.00100514 0.000698916 0)
(-0.00109557 0.000693874 0)
(-0.00118531 0.000688383 0)
(-0.00127429 0.000682444 0)
(-0.00136246 0.00067606 0)
(-0.00144975 0.000669231 0)
(-0.00153611 0.00066196 0)
(-0.00162148 0.000654249 0)
(-0.0017058 0.000646101 0)
(-0.00178902 0.000637519 0)
(-0.00187107 0.000628507 0)
(-0.0019519 0.000619067 0)
(-0.00203145 0.000609206 0)
(-0.00210966 0.000598929 0)
(-0.00218649 0.000588241 0)
(-0.00226187 0.000577151 0)
(-0.00233574 0.000565666 0)
(-0.00240806 0.000553797 0)
(-0.00247877 0.000541555 0)
(-0.00254781 0.000528954 0)
(-0.00261514 0.00051601 0)
(-0.0026807 0.000502742 0)
(-0.00274443 0.000489171 0)
(-0.0028063 0.000475324 0)
(-0.00286624 0.000461231 0)
(-0.00292422 0.000446929 0)
(-0.00298017 0.000432461 0)
(-0.00303406 0.000417876 0)
(-0.00308583 0.000403237 0)
(-0.00313544 0.000388616 0)
(-0.00318283 0.000374098 0)
(-0.00322794 0.000359787 0)
(-0.00327072 0.000345805 0)
(-0.0033111 0.000332301 0)
(-0.00334899 0.000319449 0)
(-0.00338429 0.000307461 0)
(-0.00341687 0.000296586 0)
(-0.00344654 0.000287119 0)
(-0.00347306 0.000279405 0)
(-0.00349609 0.000273836 0)
(-0.00351518 0.000270855 0)
(-0.00352968 0.000270926 0)
(-0.00353871 0.00027451 0)
(-0.00354112 0.000281979 0)
(-0.00353536 0.000293501 0)
(-0.00351951 0.000308844 0)
(-0.00349126 0.000327108 0)
(-0.00344823 0.000346268 0)
(-0.00338868 0.000362837 0)
(-1.34872e-05 0.000384234 0)
(-7.81014e-05 0.000701683 0)
(-0.000173148 0.000793707 0)
(-0.000264624 0.000812991 0)
(-0.00035935 0.00081495 0)
(-0.000453501 0.000813345 0)
(-0.000547326 0.000810771 0)
(-0.000640832 0.000807627 0)
(-0.000733941 0.000803963 0)
(-0.000826591 0.000799785 0)
(-0.000918721 0.000795096 0)
(-0.00101027 0.000789895 0)
(-0.00110119 0.000784186 0)
(-0.0011914 0.000777968 0)
(-0.00128086 0.000771243 0)
(-0.0013695 0.000764014 0)
(-0.00145727 0.000756281 0)
(-0.0015441 0.000748048 0)
(-0.00162994 0.000739316 0)
(-0.00171472 0.000730089 0)
(-0.0017984 0.00072037 0)
(-0.00188091 0.000710163 0)
(-0.00196219 0.000699472 0)
(-0.00204219 0.000688301 0)
(-0.00212084 0.000676658 0)
(-0.0021981 0.000664548 0)
(-0.0022739 0.000651979 0)
(-0.0023482 0.00063896 0)
(-0.00242092 0.000625501 0)
(-0.00249202 0.000611615 0)
(-0.00256144 0.000597316 0)
(-0.00262913 0.00058262 0)
(-0.00269503 0.000567546 0)
(-0.00275908 0.000552116 0)
(-0.00282123 0.000536358 0)
(-0.00288143 0.000520301 0)
(-0.00293961 0.000503983 0)
(-0.00299574 0.000487445 0)
(-0.00304973 0.000470739 0)
(-0.00310155 0.000453922 0)
(-0.00315112 0.000437066 0)
(-0.00319838 0.000420251 0)
(-0.00324326 0.000403575 0)
(-0.00328567 0.000387152 0)
(-0.00332553 0.000371115 0)
(-0.00336272 0.000355621 0)
(-0.0033971 0.000340851 0)
(-0.00342851 0.000327017 0)
(-0.00345673 0.000314355 0)
(-0.00348147 0.000303135 0)
(-0.00350238 0.000293645 0)
(-0.00351898 0.000286186 0)
(-0.00353064 0.000281043 0)
(-0.00353657 0.000278448 0)
(-0.00353578 0.000278508 0)
(-0.00352702 0.00028111 0)
(-0.00350888 0.000285785 0)
(-0.0034798 0.00029153 0)
(-0.00343837 0.000296591 0)
(-0.00338371 0.000298408 0)
(-1.35231e-05 0.000429373 0)
(-7.84662e-05 0.000783311 0)
(-0.000174052 0.00088577 0)
(-0.00026605 0.000907213 0)
(-0.000361325 0.00090938 0)
(-0.000456021 0.000907582 0)
(-0.00055039 0.000904706 0)
(-0.000644439 0.000901193 0)
(-0.000738092 0.000897099 0)
(-0.000831284 0.000892432 0)
(-0.000923955 0.000887193 0)
(-0.00101605 0.000881384 0)
(-0.0011075 0.000875006 0)
(-0.00119825 0.00086806 0)
(-0.00128824 0.000860547 0)
(-0.00137742 0.000852471 0)
(-0.00146572 0.000843832 0)
(-0.00155308 0.000834634 0)
(-0.00163944 0.000824879 0)
(-0.00172475 0.000814569 0)
(-0.00180895 0.000803709 0)
(-0.00189197 0.000792303 0)
(-0.00197376 0.000780354 0)
(-0.00205426 0.000767869 0)
(-0.00213342 0.000754852 0)
(-0.00221117 0.000741312 0)
(-0.00228745 0.000727256 0)
(-0.00236222 0.000712692 0)
(-0.0024354 0.000697632 0)
(-0.00250695 0.000682088 0)
(-0.00257681 0.000666074 0)
(-0.00264491 0.000649606 0)
(-0.0027112 0.000632703 0)
(-0.00277562 0.000615388 0)
(-0.00283812 0.000597687 0)
(-0.00289862 0.00057963 0)
(-0.00295708 0.000561253 0)
(-0.00301342 0.000542595 0)
(-0.00306759 0.000523707 0)
(-0.00311951 0.000504642 0)
(-0.00316911 0.000485468 0)
(-0.00321632 0.000466259 0)
(-0.00326104 0.000447104 0)
(-0.00330318 0.000428104 0)
(-0.00334263 0.000409378 0)
(-0.00337926 0.000391058 0)
(-0.0034129 0.000373297 0)
(-0.00344337 0.000356265 0)
(-0.00347042 0.000340146 0)
(-0.00349377 0.000325137 0)
(-0.00351304 0.000311438 0)
(-0.00352778 0.000299236 0)
(-0.00353741 0.000288678 0)
(-0.00354125 0.000279838 0)
(-0.00353846 0.000272659 0)
(-0.00352808 0.000266881 0)
(-0.00350909 0.00026195 0)
(-0.00348045 0.000256915 0)
(-0.00344135 0.000250346 0)
(-0.00339138 0.000240366 0)
(-1.35641e-05 0.000474721 0)
(-7.88733e-05 0.000865407 0)
(-0.000175058 0.000978384 0)
(-0.000267636 0.00100201 0)
(-0.00036352 0.00100438 0)
(-0.000458821 0.00100239 0)
(-0.000553794 0.000999215 0)
(-0.000648447 0.000995332 0)
(-0.000742703 0.000990808 0)
(-0.000836496 0.00098565 0)
(-0.000929769 0.000979861 0)
(-0.00102246 0.000973442 0)
(-0.00111451 0.000966393 0)
(-0.00120586 0.000958717 0)
(-0.00129645 0.000950415 0)
(-0.00138622 0.00094149 0)
(-0.0014751 0.000931943 0)
(-0.00156305 0.000921777 0)
(-0.00165 0.000910994 0)
(-0.00173589 0.000899599 0)
(-0.00182066 0.000887594 0)
(-0.00190426 0.000874984 0)
(-0.00198662 0.000861773 0)
(-0.00206769 0.000847967 0)
(-0.0021474 0.000833571 0)
(-0.0022257 0.000818592 0)
(-0.00230252 0.000803039 0)
(-0.00237782 0.000786921 0)
(-0.00245153 0.000770247 0)
(-0.00252358 0.00075303 0)
(-0.00259393 0.000735284 0)
(-0.0026625 0.000717025 0)
(-0.00272924 0.000698271 0)
(-0.00279409 0.000679045 0)
(-0.00285699 0.000659371 0)
(-0.00291786 0.000639278 0)
(-0.00297665 0.000618799 0)
(-0.00303328 0.000597974 0)
(-0.00308769 0.000576846 0)
(-0.00313979 0.000555468 0)
(-0.0031895 0.000533899 0)
(-0.00323674 0.000512207 0)
(-0.00328141 0.000490471 0)
(-0.0033234 0.000468777 0)
(-0.00336257 0.000447227 0)
(-0.0033988 0.000425931 0)
(-0.00343189 0.00040501 0)
(-0.00346166 0.000384597 0)
(-0.00348785 0.000364828 0)
(-0.00351018 0.00034584 0)
(-0.00352828 0.000327758 0)
(-0.00354174 0.000310681 0)
(-0.00355004 0.000294659 0)
(-0.00355259 0.000279664 0)
(-0.00354873 0.000265542 0)
(-0.00353773 0.00025197 0)
(-0.00351884 0.000238394 0)
(-0.0034914 0.00022398 0)
(-0.00345492 0.000207599 0)
(-0.00340926 0.00018786 0)
(-1.36097e-05 0.0005203 0)
(-7.93221e-05 0.000948018 0)
(-0.000176166 0.00107161 0)
(-0.000269382 0.00109743 0)
(-0.000365935 0.00110002 0)
(-0.000461901 0.00109784 0)
(-0.000557538 0.00109436 0)
(-0.000652856 0.0010901 0)
(-0.000747774 0.00108515 0)
(-0.00084223 0.0010795 0)
(-0.000936164 0.00107316 0)
(-0.00102952 0.00106613 0)
(-0.00112222 0.00105841 0)
(-0.00121423 0.00105 0)
(-0.00130547 0.00104091 0)
(-0.00139589 0.00103113 0)
(-0.00148543 0.00102067 0)
(-0.00157403 0.00100954 0)
(-0.00166162 0.000997723 0)
(-0.00174815 0.000985238 0)
(-0.00183356 0.000972084 0)
(-0.00191779 0.000958266 0)
(-0.00200078 0.000943787 0)
(-0.00208246 0.000928653 0)
(-0.00216279 0.000912871 0)
(-0.0022417 0.000896447 0)
(-0.00231913 0.000879388 0)
(-0.00239501 0.000861703 0)
(-0.0024693 0.000843403 0)
(-0.00254192 0.0008245 0)
(-0.00261281 0.000805006 0)
(-0.00268192 0.000784937 0)
(-0.00274918 0.000764311 0)
(-0.00281452 0.000743148 0)
(-0.00287788 0.000721472 0)
(-0.00293919 0.000699309 0)
(-0.00299838 0.00067669 0)
(-0.00305537 0.000653651 0)
(-0.00311009 0.000630233 0)
(-0.00316245 0.000606482 0)
(-0.00321237 0.00058245 0)
(-0.00325975 0.000558197 0)
(-0.00330447 0.00053379 0)
(-0.00334643 0.000509303 0)
(-0.00338548 0.000484818 0)
(-0.00342147 0.000460424 0)
(-0.00345423 0.000436216 0)
(-0.00348355 0.000412288 0)
(-0.00350918 0.000388738 0)
(-0.00353084 0.000365652 0)
(-0.0035482 0.000343097 0)
(-0.00356088 0.000321109 0)
(-0.00356843 0.000299671 0)
(-0.00357037 0.000278691 0)
(-0.00356615 0.000257969 0)
(-0.00355523 0.000237168 0)
(-0.00353708 0.000215776 0)
(-0.00351125 0.000193096 0)
(-0.00347747 0.000168239 0)
(-0.00343574 0.000140171 0)
(-1.36596e-05 0.000566133 0)
(-7.98122e-05 0.0010312 0)
(-0.000177375 0.0011655 0)
(-0.000271288 0.00119354 0)
(-0.000368571 0.00119636 0)
(-0.000465262 0.00119398 0)
(-0.000561624 0.00119019 0)
(-0.000657666 0.00118557 0)
(-0.000753308 0.00118018 0)
(-0.000848486 0.00117404 0)
(-0.000943141 0.00116715 0)
(-0.00103721 0.0011595 0)
(-0.00113064 0.00115111 0)
(-0.00122336 0.00114197 0)
(-0.00131532 0.00113208 0)
(-0.00140645 0.00112145 0)
(-0.0014967 0.00111008 0)
(-0.001586 0.00109797 0)
(-0.0016743 0.00108512 0)
(-0.00176153 0.00107155 0)
(-0.00184764 0.00105724 0)
(-0.00193256 0.00104221 0)
(-0.00201623 0.00102646 0)
(-0.0020986 0.00100999 0)
(-0.00217961 0.000992813 0)
(-0.00225918 0.000974935 0)
(-0.00233727 0.000956361 0)
(-0.0024138 0.000937101 0)
(-0.00248873 0.000917163 0)
(-0.00256198 0.000896559 0)
(-0.00263349 0.000875302 0)
(-0.0027032 0.000853406 0)
(-0.00277103 0.000830886 0)
(-0.00283693 0.000807763 0)
(-0.00290083 0.000784057 0)
(-0.00296264 0.000759793 0)
(-0.00302231 0.000734999 0)
(-0.00307974 0.000709706 0)
(-0.00313486 0.000683951 0)
(-0.00318757 0.000657773 0)
(-0.00323779 0.000631219 0)
(-0.0032854 0.000604338 0)
(-0.00333031 0.000577186 0)
(-0.00337237 0.000549824 0)
(-0.00341145 0.000522317 0)
(-0.0034474 0.000494733 0)
(-0.00348003 0.000467141 0)
(-0.00350914 0.000439608 0)
(-0.00353449 0.000412194 0)
(-0.00355582 0.000384948 0)
(-0.00357283 0.000357893 0)
(-0.00358516 0.00033102 0)
(-0.00359246 0.00030427 0)
(-0.0035943 0.000277515 0)
(-0.00359026 0.000250541 0)
(-0.00357992 0.000223022 0)
(-0.00356292 0.000194512 0)
(-0.00353894 0.000164434 0)
(-0.00350784 0.000132092 0)
(-0.00346969 9.67126e-05 0)
(-1.37137e-05 0.000612243 0)
(-8.03434e-05 0.00111499 0)
(-0.000178686 0.00126011 0)
(-0.000273353 0.00129041 0)
(-0.000371428 0.00129344 0)
(-0.000468904 0.00129088 0)
(-0.000566052 0.00128679 0)
(-0.000662878 0.00128179 0)
(-0.000759304 0.00127597 0)
(-0.000855265 0.00126933 0)
(-0.000950702 0.00126189 0)
(-0.00104555 0.00125363 0)
(-0.00113976 0.00124456 0)
(-0.00123326 0.00123468 0)
(-0.00132599 0.001224 0)
(-0.00141789 0.00121251 0)
(-0.00150891 0.00120023 0)
(-0.00159898 0.00118714 0)
(-0.00168804 0.00117326 0)
(-0.00177604 0.00115858 0)
(-0.0018629 0.00114312 0)
(-0.00194857 0.00112687 0)
(-0.002033 0.00110984 0)
(-0.00211611 0.00109203 0)
(-0.00219785 0.00107346 0)
(-0.00227815 0.00105412 0)
(-0.00235696 0.00103402 0)
(-0.00243421 0.00101317 0)
(-0.00250984 0.000991588 0)
(-0.00258378 0.000969272 0)
(-0.00265597 0.000946237 0)
(-0.00272634 0.000922496 0)
(-0.00279482 0.000898064 0)
(-0.00286135 0.000872959 0)
(-0.00292585 0.000847199 0)
(-0.00298825 0.000820806 0)
(-0.00304847 0.000793804 0)
(-0.00310642 0.000766222 0)
(-0.00316202 0.000738088 0)
(-0.00321519 0.000709439 0)
(-0.00326581 0.000680312 0)
(-0.00331378 0.000650748 0)
(-0.00335898 0.000620791 0)
(-0.0034013 0.00059049 0)
(-0.00344057 0.000559893 0)
(-0.00347665 0.000529051 0)
(-0.00350936 0.00049801 0)
(-0.00353849 0.000466813 0)
(-0.00356384 0.000435493 0)
(-0.00358514 0.000404067 0)
(-0.00360213 0.000372528 0)
(-0.0036145 0.000340836 0)
(-0.00362194 0.000308907 0)
(-0.0036241 0.0002766 0)
(-0.00362064 0.000243701 0)
(-0.00361126 0.000209914 0)
(-0.00359566 0.000174857 0)
(-0.00357367 0.000138057 0)
(-0.00354519 9.89729e-05 0)
(-0.00351032 5.70224e-05 0)
(-1.37719e-05 0.000658651 0)
(-8.09155e-05 0.00119944 0)
(-0.000180098 0.00135552 0)
(-0.000275578 0.00138809 0)
(-0.000374505 0.00139135 0)
(-0.000472829 0.00138859 0)
(-0.000570822 0.00138419 0)
(-0.000668494 0.00137882 0)
(-0.000765764 0.00137257 0)
(-0.000862569 0.00136544 0)
(-0.000958848 0.00135744 0)
(-0.00105454 0.00134856 0)
(-0.00114958 0.00133882 0)
(-0.00124392 0.0013282 0)
(-0.00133749 0.00131672 0)
(-0.00143023 0.00130438 0)
(-0.00152207 0.00129117 0)
(-0.00161297 0.0012771 0)
(-0.00170286 0.00126218 0)
(-0.00179167 0.00124641 0)
(-0.00187935 0.00122978 0)
(-0.00196584 0.00121231 0)
(-0.00205107 0.001194 0)
(-0.00213498 0.00117485 0)
(-0.00221752 0.00115486 0)
(-0.00229862 0.00113406 0)
(-0.00237821 0.00111243 0)
(-0.00245624 0.00108999 0)
(-0.00253263 0.00106674 0)
(-0.00260733 0.0010427 0)
(-0.00268026 0.00101788 0)
(-0.00275137 0.000992276 0)
(-0.00282057 0.000965915 0)
(-0.0028878 0.000938809 0)
(-0.00295298 0.000910973 0)
(-0.00301604 0.000882427 0)
(-0.00307689 0.00085319 0)
(-0.00313545 0.000823286 0)
(-0.00319164 0.000792741 0)
(-0.00324535 0.000761582 0)
(-0.00329648 0.000729841 0)
(-0.00334492 0.000697548 0)
(-0.00339056 0.00066474 0)
(-0.00343327 0.000631451 0)
(-0.00347289 0.000597716 0)
(-0.00350928 0.000563569 0)
(-0.00354227 0.000529039 0)
(-0.00357165 0.000494148 0)
(-0.00359724 0.000458908 0)
(-0.00361879 0.000423312 0)
(-0.00363606 0.000387332 0)
(-0.00364878 0.000350911 0)
(-0.00365669 0.000313951 0)
(-0.0036595 0.000276308 0)
(-0.00365694 0.00023778 0)
(-0.00364877 0.000198108 0)
(-0.00363477 0.000156967 0)
(-0.00361482 0.000113975 0)
(-0.00358888 6.8705e-05 0)
(-0.00355702 2.07122e-05 0)
(-1.38338e-05 0.00070538 0)
(-8.15281e-05 0.00128461 0)
(-0.000181611 0.00145176 0)
(-0.000277962 0.00148663 0)
(-0.000377803 0.00149013 0)
(-0.000477035 0.00148718 0)
(-0.000575935 0.00148248 0)
(-0.000674513 0.00147673 0)
(-0.00077269 0.00147005 0)
(-0.000870399 0.00146242 0)
(-0.000967581 0.00145386 0)
(-0.00106417 0.00144437 0)
(-0.00116012 0.00143394 0)
(-0.00125535 0.00142259 0)
(-0.00134982 0.00141031 0)
(-0.00144345 0.0013971 0)
(-0.00153619 0.00138297 0)
(-0.00162797 0.00136793 0)
(-0.00171874 0.00135196 0)
(-0.00180844 0.00133508 0)
(-0.001897 0.00131729 0)
(-0.00198436 0.00129859 0)
(-0.00207046 0.00127899 0)
(-0.00215524 0.00125849 0)
(-0.00223864 0.0012371 0)
(-0.00232059 0.00121482 0)
(-0.00240103 0.00119165 0)
(-0.0024799 0.00116761 0)
(-0.00255712 0.00114269 0)
(-0.00263264 0.00111692 0)
(-0.00270639 0.00109029 0)
(-0.0027783 0.00106282 0)
(-0.00284829 0.00103451 0)
(-0.00291629 0.00100539 0)
(-0.00298224 0.000975457 0)
(-0.00304603 0.000944736 0)
(-0.00310761 0.000913241 0)
(-0.00316687 0.000880991 0)
(-0.00322373 0.000848006 0)
(-0.00327809 0.000814307 0)
(-0.00332984 0.000779919 0)
(-0.00337888 0.000744865 0)
(-0.00342508 0.00070917 0)
(-0.00346832 0.000672859 0)
(-0.00350845 0.000635954 0)
(-0.00354533 0.000598474 0)
(-0.00357878 0.000560434 0)
(-0.00360863 0.00052184 0)
(-0.00363468 0.000482687 0)
(-0.00365672 0.000442953 0)
(-0.00367453 0.000402595 0)
(-0.00368788 0.000361544 0)
(-0.00369654 0.0003197 0)
(-0.00370027 0.000276922 0)
(-0.00369884 0.000233028 0)
(-0.00369207 0.000187792 0)
(-0.0036798 0.000140942 0)
(-0.00366193 9.21694e-05 0)
(-0.00363845 4.11436e-05 0)
(-0.00360939 -1.24671e-05 0)
(-1.38995e-05 0.000752451 0)
(-8.21812e-05 0.00137055 0)
(-0.000183225 0.0015489 0)
(-0.000280507 0.00158612 0)
(-0.000381324 0.00158985 0)
(-0.000481524 0.00158671 0)
(-0.000581392 0.0015817 0)
(-0.000680938 0.00157558 0)
(-0.000780081 0.00156846 0)
(-0.000878756 0.00156033 0)
(-0.000976901 0.00155121 0)
(-0.00107446 0.0015411 0)
(-0.00117136 0.00153 0)
(-0.00126755 0.0015179 0)
(-0.00136297 0.00150482 0)
(-0.00145756 0.00149075 0)
(-0.00155125 0.0014757 0)
(-0.00164398 0.00145966 0)
(-0.0017357 0.00144265 0)
(-0.00182634 0.00142467 0)
(-0.00191584 0.00140571 0)
(-0.00200414 0.00138578 0)
(-0.00209117 0.00136489 0)
(-0.00217688 0.00134303 0)
(-0.0022612 0.00132022 0)
(-0.00234407 0.00129646 0)
(-0.00242542 0.00127175 0)
(-0.00250519 0.00124609 0)
(-0.00258332 0.0012195 0)
(-0.00265973 0.00119198 0)
(-0.00273437 0.00116354 0)
(-0.00280714 0.00113419 0)
(-0.002878 0.00110393 0)