/*--------------------------------*- C++ -*----------------------------------*\
  =========                 |
  \\      /  F ield         | OpenFOAM: The Open Source CFD Toolbox
   \\    /   O peration     | Website:  https://openfoam.org
    \\  /    A nd           | Version:  8
     \\/     M anipulation  |
\*---------------------------------------------------------------------------*/
FoamFile
{
    version     2.0;
    format      ascii;
    class       surfaceScalarField;
    location    "1.85";
    object      phi;
}
// * * * * * * * * * * * * * * * * * * * * * * * * * * * * * * * * * * * * * //

dimensions      [0 3 -1 0 0 0 0];

internalField   nonuniform List<scalar> 
760
(
1.24969e-06
1.9702e-20
1.24969e-06
9.08995e-21
1.24969e-06
3.43943e-21
1.24969e-06
1.18988e-21
1.24969e-06
-2.03476e-23
1.24969e-06
-7.01584e-22
1.24969e-06
-7.9216e-22
1.24969e-06
-1.16864e-21
1.24969e-06
-1.02154e-21
1.24969e-06
-1.2424e-21
1.24969e-06
-1.36622e-21
1.24969e-06
-1.0521e-21
1.24969e-06
-9.3047e-22
1.24969e-06
-8.78298e-22
1.24969e-06
-9.3636e-22
1.24969e-06
-4.162e-22
1.24969e-06
3.70006e-22
1.24969e-06
1.33173e-21
1.24969e-06
3.62611e-21
9.30331e-21
3.74907e-06
1.7241e-20
3.74907e-06
1.22322e-20
3.74907e-06
6.50079e-21
3.74907e-06
2.77579e-21
3.74907e-06
-3.55624e-22
3.74907e-06
-2.25875e-21
3.74907e-06
-2.28323e-21
3.74907e-06
-2.32978e-21
3.74907e-06
-3.40127e-21
3.74907e-06
-3.32037e-21
3.74907e-06
-2.85899e-21
3.74907e-06
-3.24686e-21
3.74907e-06
-2.78441e-21
3.74907e-06
-1.8168e-21
3.74907e-06
-1.62098e-21
3.74907e-06
-1.00503e-21
3.74907e-06
1.09513e-21
3.74907e-06
3.71394e-21
3.74907e-06
7.65709e-21
1.28546e-20
6.24848e-06
1.82571e-20
6.24848e-06
1.36523e-20
6.24848e-06
9.22875e-21
6.24848e-06
4.12223e-21
6.24848e-06
1.86771e-22
6.24848e-06
-1.67288e-21
6.24848e-06
-3.35369e-21
6.24848e-06
-5.15426e-21
6.24848e-06
-5.82132e-21
6.24848e-06
-5.69836e-21
6.24848e-06
-4.50266e-21
6.24848e-06
-4.66391e-21
6.24848e-06
-4.30331e-21
6.24848e-06
-3.90717e-21
6.24848e-06
-2.37514e-21
6.24848e-06
-3.1145e-22
6.24848e-06
2.07748e-21
6.24848e-06
5.94388e-21
6.24848e-06
1.08233e-20
1.56942e-20
8.74793e-06
1.83528e-20
8.74793e-06
1.67155e-20
8.74793e-06
1.08086e-20
8.74793e-06
4.69702e-21
8.74793e-06
3.5587e-22
8.74793e-06
-2.67259e-21
8.74793e-06
-5.23259e-21
8.74793e-06
-5.67635e-21
8.74793e-06
-6.1874e-21
8.74793e-06
-7.67647e-21
8.74793e-06
-7.90282e-21
8.74793e-06
-7.04548e-21
8.74793e-06
-6.16467e-21
8.74793e-06
-4.64558e-21
8.74793e-06
-2.51847e-21
8.74793e-06
-2.20574e-22
8.74793e-06
4.61632e-21
8.74793e-06
1.00206e-20
8.74793e-06
1.38083e-20
1.74372e-20
1.12474e-05
1.8807e-20
1.12474e-05
1.60879e-20
1.12474e-05
1.08908e-20
1.12474e-05
5.03498e-21
1.12474e-05
-8.41481e-23
1.12474e-05
-2.90887e-21
1.12474e-05
-4.74087e-21
1.12474e-05
-6.91186e-21
1.12474e-05
-7.66077e-21
1.12474e-05
-7.77261e-21
1.12474e-05
-8.45387e-21
1.12474e-05
-1.02811e-20
1.12474e-05
-7.76342e-21
1.12474e-05
-4.64269e-21
1.12474e-05
-6.62524e-22
1.12474e-05
3.7401e-21
1.12474e-05
7.29095e-21
1.12474e-05
1.02207e-20
1.12474e-05
1.41832e-20
1.80004e-20
1.3747e-05
1.51e-20
1.3747e-05
1.47878e-20
1.3747e-05
1.04943e-20
1.3747e-05
4.80404e-21
1.3747e-05
-2.50044e-22
1.3747e-05
-3.22264e-21
1.3747e-05
-4.99092e-21
1.3747e-05
-7.1597e-21
1.3747e-05
-7.62819e-21
1.3747e-05
-9.28706e-21
1.3747e-05
-9.51985e-21
1.3747e-05
-9.59461e-21
1.3747e-05
-9.37248e-21
1.3747e-05
-4.21182e-21
1.3747e-05
1.6363e-21
1.3747e-05
5.043e-21
1.3747e-05
8.92904e-21
1.3747e-05
1.24101e-20
1.3747e-05
1.59269e-20
1.58898e-20
1.62466e-05
1.57791e-20
1.62466e-05
1.19994e-20
1.62466e-05
9.30111e-21
1.62466e-05
4.1611e-21
1.62466e-05
1.31429e-21
1.62466e-05
-2.54342e-21
1.62466e-05
-5.68582e-21
1.62466e-05
-6.59316e-21
1.62466e-05
-9.42728e-21
1.62466e-05
-9.32121e-21
1.62466e-05
-1.02851e-20
1.62466e-05
-9.17492e-21
1.62466e-05
-6.6392e-21
1.62466e-05
-2.2861e-21
1.62466e-05
4.50975e-23
1.62466e-05
5.66811e-21
1.62466e-05
1.14717e-20
1.62466e-05
1.60519e-20
1.62466e-05
1.46087e-20
1.32596e-20
1.87463e-05
1.26867e-20
1.87463e-05
1.16108e-20
1.87463e-05
7.71442e-21
1.87463e-05
5.12265e-21
1.87463e-05
8.14461e-22
1.87463e-05
-2.32406e-21
1.87463e-05
-4.74499e-21
1.87463e-05
-6.89548e-21
1.87463e-05
-8.95741e-21
1.87463e-05
-1.08438e-20
1.87463e-05
-1.11363e-20
1.87463e-05
-8.68677e-21
1.87463e-05
-4.75326e-21
1.87463e-05
-1.63554e-21
1.87463e-05
4.81268e-21
1.87463e-05
7.84531e-21
1.87463e-05
9.69385e-21
1.87463e-05
1.31878e-20
1.87463e-05
1.58079e-20
1.58324e-20
2.12461e-05
1.53921e-20
2.12461e-05
1.34748e-20
2.12461e-05
9.42225e-21
2.12461e-05
5.37264e-21
2.12461e-05
2.20447e-22
2.12461e-05
-1.76437e-21
2.12461e-05
-4.12372e-21
2.12461e-05
-6.71133e-21
2.12461e-05
-7.95425e-21
2.12461e-05
-8.65566e-21
2.12461e-05
-9.88186e-21
2.12461e-05
-8.38791e-21
2.12461e-05
-6.12067e-21
2.12461e-05
-3.42604e-21
2.12461e-05
2.87389e-21
2.12461e-05
7.17679e-21
2.12461e-05
9.09282e-21
2.12461e-05
1.31445e-20
2.12461e-05
1.50426e-20
1.76576e-20
2.3746e-05
1.51746e-20
2.3746e-05
1.34541e-20
2.3746e-05
1.01795e-20
2.3746e-05
4.86889e-21
2.3746e-05
-7.54037e-22
2.3746e-05
-2.82479e-21
2.3746e-05
-6.43842e-21
2.3746e-05
-4.39875e-21
2.3746e-05
-7.16046e-21
2.3746e-05
-7.97794e-21
2.3746e-05
-7.19427e-21
2.3746e-05
-6.04725e-21
2.3746e-05
-4.55763e-21
2.3746e-05
-1.58985e-21
2.3746e-05
1.24612e-21
2.3746e-05
3.24184e-21
2.3746e-05
7.40155e-21
2.3746e-05
8.64639e-21
2.3746e-05
1.2781e-20
1.56011e-20
2.6246e-05
1.54273e-20
2.6246e-05
1.24128e-20
2.6246e-05
1.07116e-20
2.6246e-05
5.75462e-21
2.6246e-05
4.31707e-21
2.6246e-05
-1.08941e-21
2.6246e-05
-3.08371e-21
2.6246e-05
-8.62354e-21
2.6246e-05
-7.93974e-21
2.6246e-05
-5.13559e-21
2.6246e-05
-6.21551e-21
2.6246e-05
-2.06415e-21
2.6246e-05
-1.78487e-21
2.6246e-05
-2.61618e-21
2.6246e-05
-1.00495e-21
2.6246e-05
2.81448e-21
2.6246e-05
7.64152e-21
2.6246e-05
9.18032e-21
2.6246e-05
1.1897e-20
1.42728e-20
2.87461e-05
9.69015e-21
2.87461e-05
1.12527e-20
2.87461e-05
9.62318e-21
2.87461e-05
5.6567e-21
2.87461e-05
3.64039e-21
2.87461e-05
-1.37242e-21
2.87461e-05
-3.13152e-21
2.87461e-05
-2.82583e-21
2.87461e-05
-4.84447e-21
2.87461e-05
-6.48217e-21
2.87461e-05
-1.46035e-21
2.87461e-05
-8.07059e-22
2.87461e-05
2.47987e-21
2.87461e-05
-1.31734e-22
2.87461e-05
-3.89138e-22
2.87461e-05
1.35695e-21
2.87461e-05
2.71262e-21
2.87461e-05
7.27787e-21
2.87461e-05
1.0394e-20
7.53977e-21
3.12463e-05
6.69279e-21
3.12463e-05
7.0696e-21
3.12463e-05
3.407e-21
3.12463e-05
2.4134e-21
3.12463e-05
-1.61549e-21
3.12463e-05
-1.19552e-21
3.12463e-05
-2.41493e-21
3.12463e-05
1.06808e-21
3.12463e-05
1.81066e-21
3.12463e-05
3.28341e-21
3.12463e-05
2.31885e-21
3.12463e-05
5.20721e-21
3.12463e-05
5.55871e-21
3.12463e-05
7.71337e-21
3.12463e-05
4.33386e-21
3.12463e-05
2.41504e-21
3.12463e-05
5.58181e-23
3.12463e-05
3.30811e-21
3.12463e-05
5.86697e-22
3.365e-21
3.37466e-05
5.71595e-22
3.37466e-05
2.96898e-21
3.37466e-05
1.99873e-21
3.37466e-05
6.41618e-22
3.37466e-05
1.04836e-21
3.37466e-05
7.1999e-22
3.37466e-05
4.94526e-22
3.37466e-05
-2.12457e-22
3.37466e-05
4.81758e-21
3.37466e-05
5.23665e-21
3.37466e-05
6.06519e-21
3.37466e-05
4.93456e-21
3.37466e-05
5.15174e-21
3.37466e-05
4.81901e-21
3.37466e-05
5.55767e-21
3.37466e-05
3.04442e-21
3.37466e-05
1.47969e-21
3.37466e-05
-3.97074e-22
3.37466e-05
2.56172e-21
4.42192e-22
3.6247e-05
-4.66062e-21
3.6247e-05
-1.84899e-21
3.6247e-05
1.52423e-21
3.6247e-05
3.0938e-21
3.6247e-05
3.28014e-21
3.6247e-05
1.01357e-21
3.6247e-05
-1.61932e-21
3.6247e-05
-1.17836e-21
3.6247e-05
2.64164e-21
3.6247e-05
3.29031e-21
3.6247e-05
3.15954e-21
3.6247e-05
3.81326e-21
3.6247e-05
5.06825e-21
3.6247e-05
6.01348e-21
3.6247e-05
2.60439e-21
3.6247e-05
2.12826e-21
3.6247e-05
2.4211e-21
3.6247e-05
-1.43525e-21
3.6247e-05
-2.55618e-21
-3.06451e-21
3.87474e-05
-4.66938e-21
3.87474e-05
1.53099e-21
3.87474e-05
3.49081e-21
3.87474e-05
5.12721e-21
3.87474e-05
5.34242e-21
3.87474e-05
1.29595e-21
3.87474e-05
-5.4716e-21
3.87474e-05
-4.13836e-21
3.87474e-05
2.43218e-21
3.87474e-05
1.02593e-21
3.87474e-05
-1.36025e-22
3.87474e-05
3.58088e-21
3.87474e-05
5.72585e-21
3.87474e-05
4.81943e-21
3.87474e-05
1.32705e-21
3.87474e-05
1.03343e-21
3.87474e-05
8.18376e-23
3.87474e-05
-4.00013e-21
3.87474e-05
-6.57592e-21
-4.42034e-21
4.12479e-05
2.93074e-21
4.12479e-05
2.41081e-21
4.12479e-05
5.50768e-21
4.12479e-05
6.78974e-21
4.12479e-05
2.41399e-21
4.12479e-05
-3.28889e-21
4.12479e-05
-1.78706e-21
4.12479e-05
-2.62332e-21
4.12479e-05
-2.80585e-21
4.12479e-05
-1.19221e-21
4.12479e-05
3.38178e-22
4.12479e-05
-7.92897e-22
4.12479e-05
2.42247e-21
4.12479e-05
5.23717e-21
4.12479e-05
3.39195e-21
4.12479e-05
4.26745e-22
4.12479e-05
-3.67614e-21
4.12479e-05
-6.41518e-21
4.12479e-05
-6.59703e-21
-2.50277e-21
4.37485e-05
2.01113e-21
4.37485e-05
1.34755e-21
4.37485e-05
7.01223e-21
4.37485e-05
6.07719e-21
4.37485e-05
-3.41744e-22
4.37485e-05
-1.31768e-21
4.37485e-05
-6.52435e-21
4.37485e-05
-4.64744e-21
4.37485e-05
-1.04573e-22
4.37485e-05
3.13554e-21
4.37485e-05
2.58915e-21
4.37485e-05
5.07185e-21
4.37485e-05
4.31303e-21
4.37485e-05
1.41913e-21
4.37485e-05
4.65547e-22
4.37485e-05
-4.89633e-21
4.37485e-05
-5.55521e-21
4.37485e-05
-2.07353e-21
4.37485e-05
-2.63894e-21
-2.63843e-21
4.62491e-05
-8.1879e-22
4.62491e-05
-4.93984e-21
4.62491e-05
2.49154e-21
4.62491e-05
8.66271e-21
4.62491e-05
3.46387e-21
4.62491e-05
4.67248e-24
4.62491e-05
-1.5626e-21
4.62491e-05
-4.38967e-21
4.62491e-05
-1.78058e-21
4.62491e-05
2.63232e-21
4.62491e-05
6.68497e-22
4.62491e-05
-1.72201e-21
4.62491e-05
1.15007e-21
4.62491e-05
1.19245e-21
4.62491e-05
2.50581e-21
4.62491e-05
2.62955e-22
4.62491e-05
-2.64024e-21
4.62491e-05
-4.62037e-21
4.62491e-05
-6.09463e-23
5.49273e-22
4.87497e-05
4.87497e-05
4.87497e-05
4.87497e-05
4.87497e-05
4.87497e-05
4.87497e-05
4.87497e-05
4.87497e-05
4.87497e-05
4.87497e-05
4.87497e-05
4.87497e-05
4.87497e-05
4.87497e-05
4.87497e-05
4.87497e-05
4.87497e-05
4.87497e-05
)
;

boundaryField
{
    movingWall
    {
        type            calculated;
        value           uniform 0;
    }
    fixedWalls
    {
        type            calculated;
        value           uniform 0;
    }
    left
    {
        type            cyclic;
        value           nonuniform List<scalar> 
20
(
-3.87474e-05
-3.6247e-05
-3.37466e-05
-3.12463e-05
-2.87461e-05
-2.6246e-05
-2.3746e-05
-2.12461e-05
-1.87463e-05
-1.62466e-05
-1.3747e-05
-1.12474e-05
-8.74793e-06
-6.24848e-06
-3.74907e-06
-1.24969e-06
-4.12479e-05
-4.37485e-05
-4.62491e-05
-4.87497e-05
)
;
    }
    right
    {
        type            cyclic;
        value           nonuniform List<scalar> 
20
(
3.87474e-05
3.6247e-05
3.37466e-05
3.12463e-05
2.87461e-05
2.6246e-05
2.3746e-05
2.12461e-05
1.87463e-05
1.62466e-05
1.3747e-05
1.12474e-05
8.74793e-06
6.24848e-06
3.74907e-06
1.24969e-06
4.12479e-05
4.37485e-05
4.62491e-05
4.87497e-05
)
;
    }
    frontAndBack
    {
        type            empty;
        value           nonuniform List<scalar> 0();
    }
}


// ************************************************************************* //
