/*--------------------------------*- C++ -*----------------------------------*\
  =========                 |
  \\      /  F ield         | OpenFOAM: The Open Source CFD Toolbox
   \\    /   O peration     | Website:  https://openfoam.org
    \\  /    A nd           | Version:  8
     \\/     M anipulation  |
\*---------------------------------------------------------------------------*/
FoamFile
{
    version     2.0;
    format      ascii;
    class       surfaceScalarField;
    location    "13";
    object      phi;
}
// * * * * * * * * * * * * * * * * * * * * * * * * * * * * * * * * * * * * * //

dimensions      [0 3 -1 0 0 0 0];

internalField   nonuniform List<scalar> 
34404
(
0.00534258
-9.24528e-06
5.3737e-09
0.00537022
-2.76356e-05
-8.67502e-09
0.00541551
-4.52789e-05
-1.2284e-08
0.00547707
-6.15497e-05
-6.33132e-09
0.00555302
-7.59454e-05
-2.89953e-09
0.00564107
-8.80524e-05
-2.42221e-09
0.00573864
-9.75719e-05
-1.29561e-09
0.00584299
-0.000104345
3.20364e-10
0.00595135
-0.000108369
2.62931e-09
0.00606115
-0.000109798
4.46826e-09
0.00617006
-0.000108922
5.73746e-09
0.00627619
-0.000106126
6.32215e-09
0.00637802
-0.000101841
6.19858e-09
0.0064745
-9.64833e-05
5.53457e-09
0.00656491
-9.04149e-05
4.577e-09
0.00664882
-8.39197e-05
3.61123e-09
0.00672602
-7.72034e-05
2.75583e-09
0.00679643
-7.04045e-05
2.10135e-09
0.00686004
-6.36119e-05
1.56229e-09
0.00691691
-5.68751e-05
1.19954e-09
0.00696713
-5.02172e-05
8.78887e-10
0.00701077
-4.36388e-05
7.43048e-10
0.00704789
-3.71296e-05
5.68955e-10
0.00707856
-3.06681e-05
6.06743e-10
0.00710279
-2.42326e-05
4.81385e-10
0.00712059
-1.77954e-05
6.65619e-10
0.00713192
-1.13355e-05
5.18369e-10
0.00713675
-4.82791e-06
8.75581e-10
0.00713501
1.73797e-06
5.94806e-10
0.00712664
8.37177e-06
1.2941e-09
0.00711157
1.50708e-05
8.38126e-10
0.00708973
2.18372e-05
1.93701e-09
0.00706109
2.86375e-05
8.87485e-10
0.00702563
3.54597e-05
2.67269e-09
0.00698339
4.22416e-05
5.53944e-10
0.00693442
4.89621e-05
3.65349e-09
0.00687889
5.55282e-05
-4.64628e-10
0.00681697
6.1919e-05
5.15638e-09
0.00674896
6.80104e-05
-2.70478e-09
0.00667515
7.37979e-05
7.8647e-09
0.00659603
7.91268e-05
-7.1321e-09
0.00651199
8.40292e-05
1.32082e-08
0.00642369
8.83217e-05
-1.56972e-08
0.00633157
9.20899e-05
2.39916e-08
0.00623647
9.51334e-05
-3.2182e-08
0.00613885
9.7581e-05
4.53539e-08
0.00603963
9.92783e-05
-6.27012e-08
0.00593927
0.000100279
8.16367e-08
0.00583864
0.000100737
-1.05382e-07
0.00010008
8.5677e-08
0.0053428
-1.87117e-05
5.0903e-09
0.00537105
-5.58804e-05
-9.05164e-09
0.00541734
-9.15579e-05
-1.2388e-08
0.00548027
-0.000124466
-6.47773e-09
0.00555788
-0.000153555
-3.21598e-09
0.00564781
-0.000177982
-2.60721e-09
0.00574738
-0.00019714
-1.31687e-09
0.00585374
-0.000210705
4.13131e-10
0.00596404
-0.000218671
2.88955e-09
0.0060756
-0.000221361
4.82588e-09
0.00618605
-0.000219377
6.13032e-09
0.00629344
-0.000213525
6.67014e-09
0.00639629
-0.000204697
6.44183e-09
0.00649355
-0.000193753
5.66386e-09
0.00658456
-0.000181428
4.62833e-09
0.00666893
-0.000168294
3.6382e-09
0.00674648
-0.000154756
2.80128e-09
0.00681716
-0.000141084
2.18339e-09
0.00688099
-0.00012745
1.67956e-09
0.00693806
-0.000113946
1.34301e-09
0.00698846
-0.000100612
1.042e-09
0.00703226
-8.74467e-05
9.18519e-10
0.00706956
-7.44248e-05
7.53281e-10
0.00710039
-6.15015e-05
7.94066e-10
0.00712479
-4.86304e-05
6.72232e-10
0.00714275
-3.57554e-05
8.54355e-10
0.00715424
-2.28317e-05
7.0029e-10
0.00715922
-9.80972e-06
1.02984e-09
0.00715762
3.33686e-06
7.15798e-10
0.00714937
1.66201e-05
1.43677e-09
0.0071344
3.0045e-05
1.01626e-09
0.00711263
4.36076e-05
2.11888e-09
0.00708401
5.72514e-05
1.09242e-09
0.00704853
7.0938e-05
2.84842e-09
0.00700621
8.45616e-05
7.70888e-10
0.00695711
9.80533e-05
3.82403e-09
0.00690138
0.000111261
-2.24289e-10
0.0068392
0.000124094
5.29234e-09
0.00677085
0.000136366
-2.42539e-09
0.00669666
0.000147979
7.94312e-09
0.00661705
0.000158743
-6.77811e-09
0.00653251
0.000168552
1.31494e-08
0.00644358
0.000177268
-1.52085e-08
0.00635091
0.000184743
2.36908e-08
0.00625506
0.000191013
-3.13944e-08
0.00615686
0.000195732
4.46038e-08
0.00605679
0.000199413
-6.13873e-08
0.00595593
0.000201053
8.01617e-08
0.00585435
0.000202423
-1.03537e-07
0.000200615
8.45319e-08
0.00534322
-2.86006e-05
5.1631e-09
0.00537275
-8.54046e-05
-9.62264e-09
0.00542113
-0.000139922
-1.29916e-08
0.00548686
-0.000190187
-6.8696e-09
0.00556788
-0.00023457
-3.49152e-09
0.00566165
-0.000271757
-2.73555e-09
0.00576532
-0.0003008
-1.14992e-09
0.0058758
-0.000321189
9.21685e-10
0.00599004
-0.00033292
3.71432e-09
0.00610519
-0.000336511
5.91735e-09
0.00621874
-0.000332935
7.31788e-09
0.00632869
-0.000323485
7.7403e-09
0.00643357
-0.000309586
7.22294e-09
0.0065324
-0.000292591
6.10142e-09
0.00662461
-0.000273636
4.78648e-09
0.00670989
-0.000253578
3.6454e-09
0.00678814
-0.000233013
2.76988e-09
0.00685938
-0.000212325
2.17103e-09
0.00692368
-0.000191753
1.69198e-09
0.00698116
-0.000171423
1.37567e-09
0.00703193
-0.000151381
1.09091e-09
0.00707609
-0.000131612
9.89447e-10
0.00711373
-0.000112071
8.39486e-10
0.00714492
-9.26841e-05
8.95075e-10
0.00716966
-7.33767e-05
7.75337e-10
0.00718797
-5.40609e-05
9.65269e-10
0.0071998
-3.46644e-05
7.99204e-10
0.0072051
-1.51109e-05
1.12138e-09
0.00720379
4.64595e-06
7.6677e-10
0.00719579
2.46163e-05
1.53798e-09
0.00718101
4.48204e-05
1.14539e-09
0.00715937
6.52478e-05
2.2979e-09
0.0071308
8.58184e-05
1.26504e-09
0.00709527
0.000106467
3.06444e-09
0.00705279
0.000127043
9.57783e-10
0.00700341
0.000147429
4.0672e-09
0.00694726
0.00016741
-2.95878e-11
0.00688452
0.000186823
5.5663e-09
0.00681548
0.000205417
-2.24284e-09
0.00674045
0.000222993
8.23058e-09
0.00665988
0.000239324
-6.65287e-09
0.00657426
0.000254163
1.34489e-08
0.00648413
0.000267409
-1.51578e-08
0.00639016
0.000278688
2.40157e-08
0.00629296
0.000288248
-3.14612e-08
0.00619334
0.000295305
4.49757e-08
0.00609185
0.000300966
-6.16023e-08
0.00598952
0.000303303
8.05829e-08
0.00588658
0.000305468
-1.03747e-07
0.000302576
8.48803e-08
0.00534388
-3.91497e-05
5.41294e-09
0.00537539
-0.000116903
-1.04626e-08
0.00542699
-0.000191509
-1.40803e-08
0.00549707
-0.000260258
-7.55318e-09
0.00558338
-0.000320873
-3.88152e-09
0.00568313
-0.000371512
-2.90674e-09
0.00579316
-0.000410829
-9.61319e-10
0.00591006
-0.000438092
1.74195e-09
0.00603044
-0.000453303
5.11834e-09
0.00615114
-0.00045722
7.78971e-09
0.00626947
-0.000451273
9.34963e-09
0.00638334
-0.000437366
9.54292e-09
0.00649132
-0.000417568
8.4943e-09
0.00659253
-0.000393807
6.76023e-09
0.00668654
-0.000367655
4.9668e-09
0.00677321
-0.000340251
3.58955e-09
0.00685255
-0.000312356
2.67028e-09
0.00692467
-0.000284444
2.1078e-09
0.00698971
-0.000256799
1.66055e-09
0.00704785
-0.000229559
1.37071e-09
0.00709923
-0.000202761
1.11116e-09
0.00714398
-0.000176365
1.04596e-09
0.0071822
-0.000150294
9.14936e-10
0.00721395
-0.00012444
9.90253e-10
0.00723927
-9.86918e-05
8.69687e-10
0.00725813
-7.29263e-05
1.07579e-09
0.00727051
-4.70391e-05
8.88485e-10
0.00727632
-2.09229e-05
1.20985e-09
0.00727547
5.49527e-06
7.86402e-10
0.00726787
3.22159e-05
1.64176e-09
0.0072534
5.92868e-05
1.29353e-09
0.00723195
8.66906e-05
2.53728e-09
0.00720345
0.000114322
1.46641e-09
0.00716782
0.000142089
3.35952e-09
0.00712507
0.000169795
1.1793e-09
0.00707523
0.000197269
4.43224e-09
0.00701841
0.000224232
1.93217e-10
0.00695478
0.00025044
5.99742e-09
0.00688462
0.000275575
-2.08199e-09
0.00680828
0.000299332
8.72476e-09
0.00672617
0.000321436
-6.62989e-09
0.00663883
0.000341495
1.40447e-08
0.00654681
0.000359442
-1.53677e-08
0.0064508
0.000374666
2.48105e-08
0.00635146
0.000387626
-3.20456e-08
0.00624962
0.000397099
4.61041e-08
0.00614587
0.000404778
-6.27347e-08
0.00604128
0.00040781
8.21208e-08
0.00593611
0.000410747
-1.05319e-07
0.00040666
8.5774e-08
0.0053448
-5.06181e-05
5.73968e-09
0.00537905
-0.000151143
-1.1671e-08
0.00543514
-0.000247585
-1.57274e-08
0.00551129
-0.000336397
-8.66768e-09
0.00560499
-0.000414573
-4.59924e-09
0.00571314
-0.000479654
-3.28714e-09
0.00583212
-0.000529804
-8.18017e-10
0.00595804
-0.000564014
2.92743e-09
0.00608701
-0.000582288
7.28473e-09
0.00621547
-0.000585685
1.07365e-08
0.00634041
-0.000576233
1.25336e-08
0.00645966
-0.000556628
1.22936e-08
0.00657185
-0.00052976
1.034e-08
0.00667628
-0.000498247
7.63374e-09
0.00677275
-0.000464136
5.14907e-09
0.00686133
-0.000428831
3.49912e-09
0.00694219
-0.000393216
2.58975e-09
0.00701556
-0.000357815
2.10926e-09
0.00708168
-0.000322927
1.70565e-09
0.00714079
-0.000288673
1.44641e-09
0.00719309
-0.000255059
1.22046e-09
0.00723873
-0.000222004
1.20402e-09
0.00727782
-0.000189386
1.09458e-09
0.00731043
-0.000157052
1.19279e-09
0.00733659
-0.00012485
1.06471e-09
0.00735627
-9.26137e-05
1.28399e-09
0.00736944
-6.02014e-05
1.04703e-09
0.00737598
-2.74691e-05
1.35161e-09
0.00737578
5.69436e-06
7.97452e-10
0.00736873
3.92614e-05
1.80253e-09
0.00735469
7.33329e-05
1.5334e-09
0.00733349
0.000107879
2.90248e-09
0.00730505
0.000142768
1.77336e-09
0.00726925
0.000177879
3.80047e-09
0.00722608
0.000212969
1.52262e-09
0.00717553
0.00024781
4.9746e-09
0.00711771
0.000282052
5.34436e-10
0.00705278
0.000315364
6.6339e-09
0.00698101
0.000347351
-1.82624e-09
0.00690274
0.00037759
9.44742e-09
0.00681842
0.000405758
-6.57009e-09
0.0067286
0.000431303
1.49082e-08
0.00663387
0.000454187
-1.56338e-08
0.00653496
0.000473548
2.59325e-08
0.00643256
0.000490067
-3.2841e-08
0.00632756
0.000502046
4.76702e-08
0.00622059
0.000511812
-6.42747e-08
0.00611281
0.000515504
8.41914e-08
0.00600446
0.000519208
-1.07538e-07
0.000513726
8.69533e-08
0.00534601
-6.32982e-05
6.16535e-09
0.00538387
-0.000188989
-1.3184e-08
0.00544589
-0.000309583
-1.79275e-08
0.00553007
-0.000420572
-1.02178e-08
0.00563361
-0.000518105
-5.68565e-09
0.00575294
-0.000598985
-3.92791e-09
0.00588389
-0.000660746
-6.57515e-10
0.00602188
-0.000702009
4.66814e-09
0.00616234
-0.000722759
1.0605e-08
0.00630108
-0.000724442
1.53468e-08
0.00643472
-0.000709891
1.74759e-08
0.00656095
-0.000682872
1.63989e-08
0.00667853
-0.000647355
1.28626e-08
0.00678708
-0.000606806
8.57849e-09
0.00688672
-0.000563782
5.0802e-09
0.00697779
-0.000519901
3.23388e-09
0.00706067
-0.000476102
2.48834e-09
0.00713575
-0.000432902
2.16093e-09
0.0072034
-0.00039057
1.80644e-09
0.0072639
-0.000349181
1.57168e-09
0.00731752
-0.00030868
1.38037e-09
0.00736443
-0.000268918
1.4165e-09
0.00740477
-0.00022972
1.32106e-09
0.00743859
-0.000190876
1.43622e-09
0.00746593
-0.000152187
1.28277e-09
0.00748674
-0.000113432
1.50349e-09
0.00750097
-7.44303e-05
1.17995e-09
0.00750849
-3.49911e-05
1.45124e-09
0.00750914
5.05034e-06
6.78526e-10
0.00750279
4.56059e-05
1.91384e-09
0.00748924
8.68755e-05
1.75908e-09
0.00746832
0.0001288
3.26762e-09
0.00743987
0.00017122
2.0502e-09
0.00740375
0.000213988
4.2563e-09
0.00735991
0.000256811
1.86408e-09
0.00730832
0.000299395
5.58243e-09
0.00724905
0.000341315
8.73148e-10
0.00718227
0.00038214
7.35118e-09
0.00710823
0.000421393
-1.59478e-09
0.00702729
0.000458515
1.02952e-08
0.00693993
0.000493134
-6.55862e-09
0.00684671
0.000524504
1.59527e-08
0.00674827
0.000552639
-1.60303e-08
0.00664542
0.000576377
2.73109e-08
0.00653885
0.000596667
-3.38769e-08
0.00642959
0.000611253
4.96415e-08
0.00631826
0.000623206
-6.6225e-08
0.0062062
0.000627481
8.67956e-08
0.00609356
0.000631963
-1.10363e-07
0.000624781
8.84461e-08
0.00534756
-7.75282e-05
6.7225e-09
0.00539001
-0.00023143
-1.49042e-08
0.00545962
-0.000379163
-2.07705e-08
0.00555413
-0.000515073
-1.2265e-08
0.00567037
-0.000634343
-7.28823e-09
0.00580425
-0.00073286
-4.9586e-09
0.00595081
-0.000807299
-4.59252e-10
0.00610457
-0.000855773
7.16694e-09
0.00625999
-0.000878198
1.557e-08
0.00641203
-0.000876503
2.24163e-08
0.00655676
-0.000854645
2.50431e-08
0.00669175
-0.000817888
2.25035e-08
0.00681603
-0.000771653
1.62473e-08
0.00692968
-0.000720458
9.13999e-09
0.00703327
-0.000667378
4.04638e-09
0.00712751
-0.000614144
2.36094e-09
0.00721304
-0.000561636
2.26382e-09
0.00729042
-0.000510289
2.17288e-09
0.00736014
-0.000460291
1.86031e-09
0.00742258
-0.000411623
1.6396e-09
0.00747804
-0.000364134
1.48313e-09
0.00752671
-0.000317589
1.56695e-09
0.00756873
-0.000271742
1.4582e-09
0.00760416
-0.000226317
1.55764e-09
0.00763304
-0.00018106
1.34249e-09
0.00765529
-0.000135691
1.55542e-09
0.00767085
-8.9983e-05
1.12366e-09
0.00767954
-4.36865e-05
1.34285e-09
0.00768115
3.43532e-06
2.18203e-10
0.00767557
5.11847e-05
1.78985e-09
0.00766251
9.99349e-05
1.74919e-09
0.00764175
0.00014956
3.36665e-09
0.00761309
0.000199876
2.01606e-09
0.00757636
0.000250711
4.45743e-09
0.00753145
0.00030172
1.90623e-09
0.00747831
0.000352532
5.95497e-09
0.00741698
0.000402643
9.18198e-10
0.00734761
0.0004515
7.89165e-09
0.00727046
0.000498547
-1.63132e-09
0.00718592
0.000543051
1.10602e-08
0.00709445
0.000584605
-6.81421e-09
0.00699672
0.000622221
1.70035e-08
0.00689337
0.000656002
-1.67346e-08
0.00678532
0.000684402
2.88465e-08
0.00667329
0.000708732
-3.53007e-08
0.00655846
0.000726026
5.19723e-08
0.00644144
0.000740299
-6.87154e-08
0.0063238
0.000745025
8.99773e-08
0.00620557
0.000750308
-1.13908e-07
0.000740997
9.02891e-08
0.0053495
-9.3703e-05
7.44353e-09
0.00539769
-0.000279595
-1.66484e-08
0.00547682
-0.000458271
-2.44571e-08
0.00558437
-0.000622607
-1.48848e-08
0.00571678
-0.000766748
-9.72263e-09
0.00586931
-0.000885385
-6.53571e-09
0.00603599
-0.000973976
9.97527e-12
0.00621013
-0.00102993
1.09523e-08
0.00638484
-0.00105293
2.3134e-08
0.00655384
-0.00104554
3.3083e-08
0.00671248
-0.00101333
3.61484e-08
0.00685826
-0.000963701
3.11064e-08
0.00699067
-0.000904077
2.0428e-08
0.00711047
-0.000840273
8.41947e-09
0.00721892
-0.000775824
2.87123e-09
0.00731714
-0.000712371
1.18225e-09
0.00740608
-0.000650572
1.64444e-09
0.00748647
-0.000590686
1.83366e-09
0.00755894
-0.000532755
1.49577e-09
0.00762393
-0.000476614
1.27266e-09
0.00768177
-0.000421976
1.16252e-09
0.00773267
-0.000368497
1.2835e-09
0.00777678
-0.00031585
1.10749e-09
0.00781415
-0.00026369
1.12275e-09
0.00784479
-0.000211698
7.87214e-10
0.00786863
-0.000159533
9.77174e-10
0.00788557
-0.000106923
4.85034e-10
0.00789542
-5.35366e-05
7.59393e-10
0.0078979
9.51638e-07
-6.93004e-10
0.00789291
5.61818e-05
1.04765e-09
0.00788005
0.00011279
9.50861e-10
0.00785909
0.000170519
2.60153e-09
0.00782978
0.000229186
1.05718e-09
0.0077919
0.000288589
3.7937e-09
0.00774528
0.000348335
1.02034e-09
0.00768985
0.000407957
5.47775e-09
0.00762562
0.000466875
3.21319e-11
0.00755273
0.000524381
7.69486e-09
0.00747143
0.000579851
-2.47994e-09
0.00738214
0.000632329
1.12377e-08
0.00728535
0.000681399
-7.81085e-09
0.0071818
0.000725753
1.76696e-08
0.00707217
0.000765653
-1.81007e-08
0.00695751
0.000799037
3.02666e-08
0.00683854
0.000827736
-3.73616e-08
0.00671668
0.000847832
5.45012e-08
0.00659245
0.0008646
-7.18965e-08
0.0064678
0.000869578
9.36658e-08
0.00634252
0.000875706
-1.18248e-07
0.000863685
9.24484e-08
0.00535191
-0.000112288
8.3802e-09
0.00540711
-0.000334772
-1.80389e-08
0.00549807
-0.00054921
-2.93183e-08
0.00562187
-0.000746381
-1.80942e-08
0.00577469
-0.000919553
-1.37224e-08
0.00595098
-0.00106167
-9.03639e-09
0.0061435
-0.00116649
7.27789e-10
0.00634395
-0.00123039
1.71024e-08
0.00654346
-0.00125247
3.5724e-08
0.00673397
-0.0012361
4.99369e-08
0.00690989
-0.00118929
5.20231e-08
0.00706872
-0.00112258
4.1578e-08
0.00721078
-0.00104616
2.19772e-08
0.00733791
-0.000967408
6.79195e-09
0.00745219
-0.000890109
4.85856e-10
0.00755529
-0.000815467
-9.51353e-10
0.00764841
-0.000743696
6.83127e-11
0.00773251
-0.000674778
4.45195e-10
0.00780829
-0.000608538
-7.52846e-11
0.00787627
-0.000544598
-3.25003e-10
0.00793679
-0.000482496
-3.72452e-10
0.00799007
-0.000421775
-2.87855e-10
0.00803624
-0.00036202
-6.69086e-10
0.00807538
-0.000302824
-8.54245e-10
0.00810747
-0.000243793
-1.37324e-09
0.00813247
-0.000184531
-1.27063e-09
0.00815026
-0.000124712
-1.66411e-09
0.00816067
-6.39419e-05
-9.39701e-10
0.00816339
-1.76262e-06
-1.46455e-09
0.00815822
6.13488e-05
-6.19756e-10
0.00814478
0.000126229
-1.72121e-09
0.00812281
0.000192492
-2.30313e-10
0.008092
0.000259997
-1.98482e-09
0.00805209
0.000328499
1.04765e-09
0.00800286
0.000397569
-1.92702e-09
0.00794419
0.000466616
2.98353e-09
0.00787607
0.000535004
-2.79403e-09
0.00779862
0.000601823
5.69551e-09
0.00771207
0.000666408
-5.14793e-09
0.00761689
0.000727501
9.90532e-09
0.00751356
0.00078474
-1.03771e-08
0.00740292
0.00083637
1.72163e-08
0.00728566
0.000882938
-2.07711e-08
0.007163
0.000921659
3.10007e-08
0.00703565
0.000955126
-4.05066e-08
0.00690532
0.000978111
5.68276e-08
0.00677238
0.000997613
-7.59802e-08
0.00663928
0.00100258
9.76003e-08
0.00650546
0.00100965
-1.23372e-07
0.000994181
9.47607e-08
0.00535486
-0.000133824
9.63863e-09
0.00541851
-0.0003984
-1.83836e-08
0.00552405
-0.000654711
-3.57904e-08
0.00566788
-0.000890192
-2.1626e-08
0.00584635
-0.00109801
-2.0722e-08
0.00605287
-0.00126818
-1.36144e-08
0.0062786
-0.00139222
8.00095e-10
0.00651314
-0.00146496
2.59676e-08
0.00674464
-0.00148403
5.72802e-08
0.00696242
-0.00145395
7.8803e-08
0.00715957
-0.00138652
7.64508e-08
0.00733389
-0.00129695
5.26399e-08
0.00748708
-0.00119936
1.78761e-08
0.00762257
-0.0011029
4.81531e-11
0.0077435
-0.00101104
-9.13832e-09
0.00785205
-0.000924004
-6.09038e-09
0.00794968
-0.000841327
-2.81087e-09
0.00803752
-0.000762619
-3.09745e-09
0.0081164
-0.000687408
-4.5899e-09
0.00818684
-0.000615039
-5.08777e-09
0.00824921
-0.00054486
-5.1679e-09
0.00830375
-0.000476309
-5.17154e-09
0.00835064
-0.000408898
-5.78423e-09
0.00838999
-0.00034217
-6.14219e-09
0.00842185
-0.000275648
-6.78348e-09
0.00844623
-0.000208904
-6.76076e-09
0.00846302
-0.000141494
-6.90053e-09
0.00847212
-7.30379e-05
-5.54321e-09
0.00847345
-3.08571e-06
-4.17578e-09
0.00846637
6.84346e-05
-4.69675e-09
0.00845077
0.000141834
-8.21542e-09
0.00842635
0.000216924
-7.3337e-09
0.00839274
0.000293614
-9.23512e-09
0.00834964
0.000371602
-5.73237e-09
0.00829677
0.000450446
-9.05832e-09
0.00823399
0.000529408
-3.4249e-09
0.00816117
0.000607833
-9.53035e-09
0.00807844
0.000684549
9.55688e-11
0.00798596
0.000758901
-1.12237e-08
0.00788423
0.000829224
5.61084e-09
0.00777368
0.000895308
-1.5792e-08
0.00765526
0.000954767
1.44654e-08
0.00752961
0.00100862
-2.57233e-08
0.00739817
0.00105306
3.01238e-08
0.00726153
0.00109181
-4.5374e-08
0.00712179
0.00111779
5.82448e-08
0.00697909
0.00114039
-8.1209e-08
0.0068365
0.00114507
1.01226e-07
0.00669299
0.00115329
-1.29105e-07
0.00113356
9.68572e-08
0.00535843
-0.000158925
1.14555e-08
0.00543209
-0.000472048
-1.6621e-08
0.00555543
-0.000778004
-4.42634e-08
0.00572372
-0.00105846
-2.44881e-08
0.00593446
-0.00130871
-3.27224e-08
0.00617943
-0.00151313
-2.10426e-08
0.0064481
-0.00166089
-1.87822e-09
0.00672708
-0.00174398
3.52193e-08
0.00699997
-0.00175702
8.92958e-08
0.00725227
-0.00170637
1.25387e-07
0.00747521
-0.00160958
1.16474e-07
0.00766721
-0.00148901
6.06752e-08
0.00783229
-0.00136445
1.26718e-08
0.0079762
-0.00124678
-2.5499e-08
0.00810329
-0.0011381
-3.11884e-08
0.00821617
-0.00103687
-1.91448e-08
0.00831659
-0.000941731
-1.17167e-08
0.00840587
-0.00085189
-1.33047e-08
0.00848496
-0.000766486
-1.50875e-08
0.00855448
-0.00068454
-1.54117e-08
0.00861486
-0.000605231
-1.53148e-08
0.0086665
-0.000527932
-1.53108e-08
0.00870972
-0.000452105
-1.60148e-08
0.00874482
-0.000377254
-1.61719e-08
0.00877201
-0.000302813
-1.63778e-08
0.00879146
-0.000228344
-1.57052e-08
0.00880318
-0.000153196
-1.48063e-08
0.00880726
-7.71071e-05
-1.28554e-08
0.00880378
4.08937e-07
-8.93993e-09
0.00879186
8.03615e-05
-1.199e-08
0.00877167
0.000162044
-1.85641e-08
0.00874286
0.000245752
-1.85931e-08
0.00870502
0.000331473
-2.10539e-08
0.00865781
0.000418834
-1.73813e-08
0.00860083
0.000507442
-2.1223e-08
0.00853387
0.000596388
-1.49067e-08
0.00845666
0.000685064
-2.13435e-08
0.00836926
0.000771958
-1.02505e-08
0.00827166
0.000856523
-2.20661e-08
0.00816435
0.000936535
-3.02465e-09
0.0080476
0.00101208
-2.53348e-08
0.00792246
0.0010799
8.11474e-09
0.00778936
0.00114175
-3.39994e-08
0.00765002
0.00119238
2.6489e-08
0.00750478
0.0012371
-5.26518e-08
0.00735619
0.00126633
5.77236e-08
0.00720402
0.00129265
-8.77545e-08
0.00705208
0.00129691
1.03591e-07
0.00689878
0.00130672
-1.34925e-07
0.00128203
9.80726e-08
0.00536261
-0.000188214
1.43951e-08
0.00544795
-0.000557379
-1.13072e-08
0.0055928
-0.000922801
-5.47682e-08
0.00579054
-0.00125617
-2.50548e-08
0.00604196
-0.00156008
-5.21331e-08
0.00633594
-0.00180708
-2.84529e-08
0.0066607
-0.00198565
-7.62918e-09
0.006998
-0.00208132
4.63858e-08
0.00732443
-0.00208357
1.29646e-07
0.00762007
-0.0020022
1.82077e-07
0.00787318
-0.00186286
1.66851e-07
0.0080832
-0.0016991
7.24153e-08
0.00825801
-0.00153927
-5.03466e-09
0.00840662
-0.00139532
-6.97961e-08
0.00853474
-0.00126615
-7.02588e-08
0.0086455
-0.00114757
-4.7359e-08
0.00874112
-0.00103732
-3.56549e-08
0.00882338
-0.000934119
-3.47318e-08
0.00889353
-0.000836599
-3.47389e-08
0.00895245
-0.000743429
-3.26034e-08
0.00900094
-0.000653691
-3.07086e-08
0.00903977
-0.000566727
-2.94181e-08
0.00906966
-0.000481967
-2.90429e-08
0.00909127
-0.000398836
-2.76127e-08
0.00910517
-0.000316687
-2.60391e-08
0.00911186
-0.000235016
-2.27462e-08
0.00911167
-0.000152984
-1.92026e-08
0.00910493
-7.03459e-05
-1.48488e-08
0.00909158
1.37631e-05
-1.35176e-08
0.00907117
0.000100796
-1.72907e-08
0.00904381
0.000189431
-2.5969e-08
0.00900915
0.00028044
-2.69543e-08
0.00896669
0.000373963
-3.07619e-08
0.00891599
0.000469559
-2.77236e-08
0.00885648
0.000566981
-3.28803e-08
0.00878777
0.000665132
-2.65363e-08
0.00870931
0.000763552
-3.40687e-08
0.00862098
0.00086031
-2.21807e-08
0.00852245
0.000955093
-3.50181e-08
0.00841406
0.00104494
-1.4186e-08
0.00829574
0.00113044
-3.76763e-08
0.00816854
0.00120711
-1.20493e-09
0.00803254
0.0012778
-4.51363e-08
0.00788963
0.00133527
1.98244e-08
0.00773978
0.00138701
-6.222e-08
0.00758596
0.00142009
5.43625e-08
0.00742748
0.00145123
-9.52974e-08
0.00726887
0.00145542
1.03375e-07
0.00710803
0.00146769
-1.39705e-07
0.001438
9.73717e-08
0.00536728
-0.000222174
1.97985e-08
0.00546611
-0.000656208
-2.30339e-09
0.00563636
-0.00109299
-6.59896e-08
0.00586899
-0.00148878
-2.35843e-08
0.00617189
-0.0018629
-8.37379e-08
0.0065281
-0.00216326
-2.75341e-08
0.00692706
-0.00238459
-1.31627e-08
0.00734207
-0.00249641
7.94008e-08
0.0077379
-0.0024796
1.9127e-07
0.008086
-0.00235053
2.27269e-07
0.00836935
-0.00214638
1.74347e-07
0.00858991
-0.00191971
4.63396e-08
0.00876259
-0.00171188
-6.96989e-08
0.00890101
-0.0015336
-1.37029e-07
0.00901279
-0.0013778
-1.19403e-07
0.00910216
-0.00123687
-8.30363e-08
0.00917285
-0.00110793
-6.77228e-08
0.00922753
-0.000988735
-6.39634e-08
0.0092682
-0.000877215
-5.81593e-08
0.00929651
-0.000771682
-4.93591e-08
0.00931402
-0.000671166
-4.25988e-08
0.00932227
-0.000574933
-3.7728e-08
0.00932266
-0.000482327
-3.45306e-08
0.00931639
-0.000392538
-2.99847e-08
0.00930459
-0.000304858
-2.61157e-08
0.009288
-0.000218404
-1.89449e-08
0.00926759
-0.000132561
-1.37083e-08
0.00924393
-4.66807e-05
-7.56781e-09
0.00921618
4.15282e-05
-1.04317e-08
0.00918505
0.000131941
-1.63207e-08
0.00915016
0.000224346
-2.4336e-08
0.00911106
0.000319563
-2.4429e-08
0.00906709
0.000417958
-2.91898e-08
0.00901759
0.000519092
-2.68011e-08
0.00896162
0.000622976
-3.35687e-08
0.00889847
0.000728318
-2.77569e-08
0.00882713
0.000834927
-3.72734e-08
0.00874709
0.000940369
-2.57103e-08
0.0086575
0.00104473
-4.08057e-08
0.00855835
0.00114411
-1.96811e-08
0.00844901
0.00123982
-4.55599e-08
0.00833031
0.00132582
-7.8332e-09
0.00820177
0.00140639
-5.41639e-08
0.00806532
0.00147171
1.3251e-08
0.00792033
0.00153207
-7.10515e-08
0.00777007
0.0015703
4.88747e-08
0.0076133
0.00160809
-1.01865e-07
0.00745503
0.00161359
9.941e-08
0.00729298
0.00162988
-1.41318e-07
0.00159658
9.33696e-08
0.00537206
-0.000260931
3.04602e-08
0.00548648
-0.000770638
7.29744e-09
0.00568518
-0.00129161
-7.21566e-08
0.00595903
-0.0017626
-2.77917e-08
0.00632643
-0.00223016
-1.38908e-07
0.00676022
-0.00259701
-3.60937e-08
0.00725745
-0.00288179
-3.23257e-08
0.00777831
-0.00301741
1.42959e-07
0.00826393
-0.00296553
3.14198e-07
0.00866632
-0.00275318
2.63303e-07
0.00896108
-0.00244122
7.41837e-08
0.00916109
-0.0021196
-1.17876e-07
0.00929464
-0.00184516
-2.67421e-07
0.00938282
-0.00162152
-2.50755e-07
0.00943639
-0.00143123
-1.48859e-07
0.00946289
-0.00126329
-7.81006e-08
0.00946851
-0.00111348
-7.36502e-08
0.00945805
-0.000978206
-6.89894e-08
0.00943477
-0.000853872
-5.64598e-08
0.0094016
-0.000738477
-4.06556e-08
0.00936129
-0.000630828
-2.93553e-08
0.00931627
-0.000529885
-2.16586e-08
0.0092686
-0.000434641
-1.63199e-08
0.00921996
-0.000343893
-1.0763e-08
0.00917175
-0.000256643
-6.64083e-09
0.00912484
-0.000171486
-1.00025e-09
0.00907992
-8.76488e-05
3.0474e-09
0.00903856
-5.32084e-06
2.81256e-09
0.00899817
8.19224e-05
-1.63985e-09
0.00896062
0.000169495
-6.16353e-09
0.00892464
0.000260337
-9.64209e-09
0.00888947
0.000354734
-6.84596e-09
0.00885411
0.000453332
-1.11421e-08
0.00881744
0.000555774
-8.11767e-09
0.00877802
0.000662405
-1.56022e-08
0.00873461
0.000771737
-9.98889e-09
0.00868561
0.000883948
-2.15694e-08
0.00862994
0.000996056
-1.10109e-08
0.00856602
0.00110868
-2.92018e-08
0.00849332
0.00121682
-9.50577e-09
0.00841044
0.00132274
-3.89944e-08
0.00831778
0.00141849
-2.76519e-09
0.00821408
0.00151013
-5.23652e-08
0.00810101
0.00158477
1.34232e-08
0.00797727
0.00165589
-7.23708e-08
0.00784597
0.00170155
4.47564e-08
0.00770551
0.00174866
-1.02577e-07
0.00756051
0.0017585
9.1719e-08
0.00740942
0.00178111
-1.36044e-07
0.00174819
8.46581e-08
0.00537652
-0.000304165
5.12818e-08
0.00550855
-0.000902689
1.83875e-08
0.00573612
-0.00151912
-5.60821e-08
0.00605959
-0.00208602
-5.47512e-08
0.00650445
-0.00267479
-2.28579e-07
0.00703425
-0.00312669
-1.16673e-07
0.00766515
-0.00351258
-1.13116e-07
0.00832626
-0.00367866
1.456e-07
0.00891877
-0.00355851
4.66848e-07
0.00934286
-0.00317766
3.91791e-07
0.0095751
-0.0026735
4.05644e-08
0.0096686
-0.00221271
-3.99564e-07
0.00967783
-0.00185381
-5.74076e-07
0.00963244
-0.00157574
-3.87767e-07
0.00955069
-0.00134936
-1.12641e-07
0.00944643
-0.00115902
-2.10435e-08
0.00932965
-0.000996707
8.37074e-09
0.00920645
-0.000855018
1.43496e-08
0.00908163
-0.000729081
2.37214e-08
0.00895903
-0.00061591
3.27036e-08
0.00884181
-0.00051364
3.51915e-08
0.00873233
-0.000420446
3.49822e-08
0.00863223
-0.000334566
3.37446e-08
0.00854261
-0.000254307
3.2759e-08
0.008464
-0.000178063
2.97062e-08
0.00839671
-0.00010422
2.60264e-08
0.00834067
-3.16271e-05
1.82308e-08
0.00829382
4.15161e-05
1.01024e-08
0.00825813
0.000117609
5.30671e-09
0.00823114
0.000196467
1.54562e-08
0.00821188
0.000279571
1.97314e-08
0.00819905
0.000367545
2.50329e-08
0.00819099
0.000461369
2.16406e-08
0.00818606
0.000560676
2.59526e-08
0.00818234
0.00066611
1.84994e-08
0.00817805
0.000776003
2.43807e-08
0.00817106
0.000890921
1.13877e-08
0.00815974
0.00100736
2.11171e-08
0.0081419
0.00112652
3.23314e-10
0.0081164
0.0012423
1.79678e-08
0.00808113
0.00135802
-1.47199e-08
0.00803587
0.00146373
1.78407e-08
0.00797864
0.0015674
-3.42344e-08
0.00791044
0.00165294
2.51819e-08
0.00782937
0.00173702
-5.95071e-08
0.00773771
0.00179317
4.59659e-08
0.00763385
0.00185261
-9.09554e-08
0.00752067
0.0018716
8.15342e-08
0.00739855
0.00190334
-1.18549e-07
0.00187812
7.06047e-08
0.00538049
-0.000351408
8.87583e-08
0.00552955
-0.0010518
5.17351e-08
0.00578268
-0.00177225
1.08532e-08
0.00616604
-0.00246928
-1.07828e-07
0.00669319
-0.00320162
-3.19247e-07
0.0073458
-0.00377894
-3.55546e-07
0.00817569
-0.00434206
-4.06565e-07
0.00898528
-0.00448829
3.02296e-08
0.00964242
-0.00421603
3.75025e-07
0.00994996
-0.00348577
5.79202e-07
0.00993798
-0.0026618
2.83105e-07
0.00975093
-0.0020255
-1.63914e-07
0.00948537
-0.00158764
-6.06569e-07
0.00918007
-0.00127006
-3.82956e-07
0.0088687
-0.00103798
-1.78824e-08
0.00857022
-0.000860695
1.50001e-07
0.00829431
-0.000720967
1.73191e-07
0.00804474
-0.000605611
1.61335e-07
0.00782324
-0.000507728
1.51077e-07
0.0076306
-0.000423401
1.3206e-07
0.00746628
-0.00034943
1.08333e-07
0.00732894
-0.000283198
8.83249e-08
0.00721679
-0.000222485
7.31746e-08
0.00712789
-0.000165467
6.21007e-08
0.00706027
-0.000110501
5.11458e-08
0.00701214
-5.61252e-05
3.91894e-08
0.00698042
7.05722e-08
2.51852e-08
0.00696485
5.70574e-05
2.12868e-08
0.00696377
0.000118662
2.63764e-08
0.00697518
0.000185019
4.10076e-08
0.0069974
0.000257309
4.6407e-08
0.00702878
0.000336107
5.16842e-08
0.00706755
0.000422555
4.8503e-08
0.00711192
0.00051625
5.35128e-08
0.00715994
0.000618049
4.65789e-08
0.0072097
0.000726184
5.33981e-08
0.00725906
0.000841524
4.06644e-08
0.00730614
0.000960226
5.09334e-08
0.00734865
0.00108398
2.99778e-08
0.007385
0.0012059
4.68321e-08
0.00741287
0.00133014
1.40646e-08
0.00743131
0.00144525
4.2924e-08
0.007438
0.00156071
-7.43766e-09
0.00743292
0.00165798
4.23297e-08
0.00741396
0.00175602
-3.46804e-08
0.00738167
0.0018254
4.97884e-08
0.00733503
0.00189932
-6.51468e-08
0.00727351
0.00193305
6.75361e-08
0.00720063
0.00197631
-8.52097e-08
0.00196889
5.11719e-08
0.0053836
-0.000401818
1.44524e-07
0.00554173
-0.00121006
1.25877e-07
0.00581503
-0.00204568
1.26533e-07
0.00625704
-0.00291116
-1.28875e-07
0.00685955
-0.00380385
-2.71688e-07
0.00768545
-0.00460414
-7.02189e-07
0.00879835
-0.0054542
-7.52805e-07
0.00966591
-0.00535577
-8.10199e-08
0.0100988
-0.00124896
-1.14041e-07
-0.00107555
-0.00124752
-0.00107675
0.00993995
-0.000913685
2.48202e-07
-0.00075011
-0.000912776
-0.000750626
0.00935834
-0.000568612
9.38527e-07
-0.000472103
-0.000568213
-0.000472208
0.0086297
-0.000334994
3.52717e-07
-0.000313393
-0.000335436
-0.000313386
0.00791712
-0.000874952
-1.03521e-07
0.00728123
-0.000634055
-1.15257e-07
0.00675459
-0.000511488
1.53687e-07
0.00633409
-0.000440354
1.61821e-07
0.00600701
-0.000393962
7.54315e-08
0.00575734
-0.000356001
5.57556e-08
0.00557048
-0.000320923
5.89495e-08
0.00543366
-0.000286639
5.5091e-08
0.00533651
-0.000252326
4.75323e-08
0.00527102
-0.000217754
4.11485e-08
0.00523124
-0.000182741
3.53544e-08
0.0052128
-0.000147055
2.99807e-08
0.00521244
-0.000110158
2.303e-08
0.00522769
-7.13938e-05
1.72963e-08
0.00525728
-2.95385e-05
1.13311e-08
0.00529867