/*--------------------------------*- C++ -*----------------------------------*\
  =========                 |
  \\      /  F ield         | OpenFOAM: The Open Source CFD Toolbox
   \\    /   O peration     | Website:  https://openfoam.org
    \\  /    A nd           | Version:  8
     \\/     M anipulation  |
\*---------------------------------------------------------------------------*/
FoamFile
{
    version     2.0;
    format      ascii;
    class       volVectorField;
    location    "13";
    object      U;
}
// * * * * * * * * * * * * * * * * * * * * * * * * * * * * * * * * * * * * * //

dimensions      [0 1 -1 0 0 0 0];

internalField   nonuniform List<vector> 
12504
(
(1.00014 -0.000693549 8.53276e-07)
(1.00354 -0.00206703 -1.0575e-06)
(1.0103 -0.00338233 -1.97861e-06)
(1.02035 -0.00459491 -1.31518e-06)
(1.03334 -0.00566729 -7.08871e-07)
(1.04882 -0.00656918 -4.82594e-07)
(1.06633 -0.00727863 -3.37694e-07)
(1.08537 -0.00778404 -1.64908e-08)
(1.10544 -0.00808541 3.40508e-07)
(1.12602 -0.00819428 6.59239e-07)
(1.14664 -0.00813207 8.99104e-07)
(1.1669 -0.0079272 1.03446e-06)
(1.18647 -0.0076112 1.05356e-06)
(1.20513 -0.00721469 9.74704e-07)
(1.2227 -0.00676431 8.32032e-07)
(1.23907 -0.00628107 6.72826e-07)
(1.25419 -0.00578037 5.22517e-07)
(1.26803 -0.00527269 4.02624e-07)
(1.2806 -0.00476483 3.02902e-07)
(1.2919 -0.00426064 2.33425e-07)
(1.30194 -0.00376198 1.71749e-07)
(1.31073 -0.00326898 1.40914e-07)
(1.3183 -0.00278098 1.05377e-07)
(1.32465 -0.00229643 1.0702e-07)
(1.3298 -0.00181377 8.34933e-08)
(1.33374 -0.00133093 1.1225e-07)
(1.33648 -0.000846436 8.57377e-08)
(1.33798 -0.000358416 1.43834e-07)
(1.3383 0.000133855 9.41887e-08)
(1.33733 0.000631384 2.06746e-07)
(1.33517 0.00113352 1.30208e-07)
(1.33167 0.00164064 3.15316e-07)
(1.327 0.00215006 1.41914e-07)
(1.32092 0.00266111 4.42064e-07)
(1.31374 0.00316882 8.95665e-08)
(1.30505 0.00367202 6.10968e-07)
(1.29544 0.00416322 -7.42561e-08)
(1.28416 0.00464157 8.70016e-07)
(1.27233 0.00509685 -4.4228e-07)
(1.25853 0.00553004 1.32902e-06)
(1.24485 0.00592784 -1.17887e-06)
(1.2286 0.00629504 2.22446e-06)
(1.21371 0.00661476 -2.60444e-06)
(1.19498 0.00689769 4.02018e-06)
(1.17989 0.00712324 -5.3283e-06)
(1.15829 0.00730832 7.5114e-06)
(1.14471 0.00743248 -1.01982e-05)
(1.11903 0.00750964 1.30158e-05)
(1.10998 0.00754294 -1.56489e-05)
(1.07709 0.00749228 1.03895e-05)
(1.00015 -0.00209902 8.23723e-07)
(1.00361 -0.00625056 -1.11965e-06)
(1.01053 -0.0102252 -2.00988e-06)
(1.02081 -0.0138897 -1.34242e-06)
(1.03408 -0.0171288 -7.43141e-07)
(1.0499 -0.0198499 -5.1552e-07)
(1.06778 -0.0219864 -3.53753e-07)
(1.08721 -0.0235031 -2.65907e-09)
(1.10765 -0.0244004 3.80035e-07)
(1.12857 -0.0247138 7.19048e-07)
(1.14951 -0.0245096 9.69792e-07)
(1.17003 -0.0238754 1.10274e-06)
(1.18982 -0.022908 1.10734e-06)
(1.20864 -0.0217012 1.00877e-06)
(1.22634 -0.0203359 8.49339e-07)
(1.2428 -0.0188751 6.81287e-07)
(1.258 -0.0173649 5.30001e-07)
(1.2719 -0.0158361 4.13832e-07)
(1.28451 -0.0143087 3.18939e-07)
(1.29585 -0.0127937 2.53582e-07)
(1.30592 -0.0112963 1.95116e-07)
(1.31475 -0.00981665 1.67058e-07)
(1.32235 -0.00835239 1.33782e-07)
(1.32873 -0.00689873 1.36843e-07)
(1.33391 -0.00545075 1.14101e-07)
(1.33788 -0.00400227 1.42748e-07)
(1.34065 -0.0025485 1.1539e-07)
(1.34218 -0.00108404 1.70354e-07)
(1.34252 0.0003937 1.14988e-07)
(1.34158 0.00188751 2.29338e-07)
(1.33944 0.00339598 1.57953e-07)
(1.33596 0.00491946 3.44398e-07)
(1.3313 0.00645101 1.74415e-07)
(1.32521 0.00798711 4.71793e-07)
(1.31803 0.00951483 1.24295e-07)
(1.30931 0.0110279 6.39745e-07)
(1.29968 0.0125073 -3.6761e-08)
(1.28835 0.0139456 8.94951e-07)
(1.27647 0.0153186 -3.99822e-07)
(1.26259 0.0166201 1.34559e-06)
(1.24885 0.0178222 -1.12757e-06)
(1.23249 0.0189226 2.22399e-06)
(1.21751 0.0198932 -2.53588e-06)
(1.19864 0.0207347 3.98737e-06)
(1.18346 0.0214281 -5.22359e-06)
(1.1617 0.0219659 7.42127e-06)
(1.14804 0.0223642 -1.00296e-05)
(1.12216 0.0225645 1.28417e-05)
(1.11306 0.0226986 -1.54368e-05)
(1.07994 0.0225144 1.02877e-05)
(1.00015 -0.0035539 8.40624e-07)
(1.00378 -0.0105773 -1.19782e-06)
(1.01101 -0.0172998 -2.11135e-06)
(1.02175 -0.0234963 -1.41831e-06)
(1.0356 -0.0289684 -7.97338e-07)
(1.05211 -0.0335563 -5.50509e-07)
(1.07074 -0.0371459 -3.50846e-07)
(1.09095 -0.0396768 5.68206e-08)
(1.11216 -0.0411501 5.01426e-07)
(1.1338 -0.0416287 8.91528e-07)
(1.15537 -0.0412294 1.16893e-06)
(1.17643 -0.0401067 1.2943e-06)
(1.19665 -0.0384302 1.25946e-06)
(1.21581 -0.036362 1.10583e-06)
(1.23376 -0.0340398 8.95624e-07)
(1.25042 -0.0315695 6.9465e-07)
(1.26576 -0.0290263 5.29626e-07)
(1.27977 -0.02646 4.12424e-07)
(1.29248 -0.023902 3.20296e-07)
(1.30389 -0.0213694 2.58134e-07)
(1.31404 -0.0188694 2.02395e-07)
(1.32293 -0.0164011 1.78251e-07)
(1.3306 -0.0139599 1.4797e-07)
(1.33704 -0.011537 1.53959e-07)
(1.34229 -0.00912368 1.31799e-07)
(1.34632 -0.00670935 1.61823e-07)
(1.34916 -0.00428543 1.32698e-07)
(1.35075 -0.00184291 1.87414e-07)
(1.35115 0.000623273 1.24795e-07)
(1.35026 0.00311749 2.45014e-07)
(1.34817 0.00563827 1.78076e-07)
(1.34471 0.00818533 3.73331e-07)
(1.34007 0.0107484 2.02724e-07)
(1.33399 0.0133198 5.07216e-07)
(1.32679 0.0158802 1.55524e-07)
(1.31802 0.0184158 6.81516e-07)
(1.30833 0.020899 -3.49711e-09)
(1.29691 0.0233109 9.40797e-07)
(1.28492 0.0256189 -3.69369e-07)
(1.27088 0.0278011 1.39504e-06)
(1.25699 0.0298259 -1.10447e-06)
(1.24041 0.0316676 2.27573e-06)
(1.22525 0.0333081 -2.5259e-06)
(1.2061 0.0347089 4.04333e-06)
(1.19073 0.0358906 -5.2323e-06)
(1.16864 0.0367699 7.48352e-06)
(1.1548 0.0374668 -1.00596e-05)
(1.12853 0.0377638 1.29037e-05)
(1.11932 0.0380261 -1.54558e-05)
(1.08573 0.0376768 1.03186e-05)
(1.00016 -0.0050893 8.8557e-07)
(1.00403 -0.0151452 -1.30744e-06)
(1.01174 -0.024768 -2.28928e-06)
(1.02319 -0.0336334 -1.55265e-06)
(1.03796 -0.0414518 -8.84143e-07)
(1.05553 -0.0479894 -6.04459e-07)
(1.07533 -0.0530781 -3.37551e-07)
(1.09676 -0.0566284 1.60942e-07)
(1.11916 -0.058643 7.09173e-07)
(1.14192 -0.0592178 1.1886e-06)
(1.16447 -0.058531 1.51188e-06)
(1.18635 -0.0568174 1.62074e-06)
(1.20723 -0.0543325 1.51299e-06)
(1.2269 -0.0513163 1.26113e-06)
(1.24523 -0.0479679 9.63108e-07)
(1.26218 -0.0444354 7.07526e-07)
(1.27775 -0.0408211 5.21297e-07)
(1.29195 -0.0371908 4.03138e-07)
(1.3048 -0.0335848 3.14591e-07)
(1.31634 -0.0300238 2.56493e-07)
(1.3266 -0.026515 2.04518e-07)
(1.33561 -0.0230551 1.86447e-07)
(1.34338 -0.0196355 1.60101e-07)
(1.34994 -0.0162431 1.70252e-07)
(1.35529 -0.0128642 1.48125e-07)
(1.35942 -0.0094832 1.80714e-07)
(1.36237 -0.00608728 1.4837e-07)
(1.36406 -0.00266327 2.04755e-07)
(1.36455 0.00079693 1.30393e-07)
(1.36374 0.00429927 2.60624e-07)
(1.36171 0.0078427 1.99389e-07)
(1.35831 0.0114266 4.10576e-07)
(1.3537 0.0150372 2.35391e-07)
(1.3476 0.0186627 5.56317e-07)
(1.34038 0.022277 1.92652e-07)
(1.33154 0.0258586 7.42278e-07)
(1.32175 0.0293706 3.39035e-08)
(1.31017 0.0327825 1.01344e-06)
(1.29801 0.036052 -3.41094e-07)
(1.28372 0.0391415 1.47966e-06)
(1.26958 0.0420135 -1.09827e-06)
(1.25267 0.0446207 2.37779e-06)
(1.23721 0.0469506 -2.55838e-06)
(1.21764 0.0489295 4.17735e-06)
(1.20195 0.0506109 -5.32585e-06)
(1.17934 0.0518445 7.66976e-06)
(1.16522 0.05284 -1.02356e-05)
(1.13835 0.0532402 1.31398e-05)
(1.12895 0.0536201 -1.56627e-05)
(1.09464 0.0530998 1.04001e-05)
(1.00018 -0.00674328 9.46249e-07)
(1.00438 -0.0200657 -1.46361e-06)
(1.01276 -0.0328115 -2.55508e-06)
(1.0252 -0.044546 -1.76344e-06)
(1.04125 -0.0548775 -1.02802e-06)
(1.06031 -0.0634876 -7.05515e-07)
(1.08175 -0.0701433 -3.29707e-07)
(1.10488 -0.0747201 3.13567e-07)
(1.12897 -0.0772226 1.02863e-06)
(1.15328 -0.0777882 1.65647e-06)
(1.1772 -0.0766734 2.05312e-06)
(1.20022 -0.074215 2.12699e-06)
(1.222 -0.0707753 1.89313e-06)
(1.24236 -0.0666859 1.48261e-06)
(1.26121 -0.0622128 1.05259e-06)
(1.27856 -0.0575452 7.22731e-07)
(1.29444 -0.0528078 5.14411e-07)
(1.30889 -0.0480778 4.01178e-07)
(1.32195 -0.0434004 3.1935e-07)
(1.33368 -0.0387967 2.66562e-07)
(1.34412 -0.034271 2.19617e-07)
(1.35329 -0.0298152 2.09858e-07)
(1.36123 -0.0254154 1.88233e-07)
(1.36795 -0.0210523 2.0319e-07)
(1.37346 -0.0167067 1.7982e-07)
(1.37775 -0.0123572 2.15068e-07)
(1.38084 -0.00798568 1.75845e-07)
(1.38268 -0.00357422 2.33013e-07)
(1.3833 0.000889117 1.35687e-07)
(1.3826 0.00541188 2.82019e-07)
(1.38067 0.00999419 2.32176e-07)
(1.37732 0.0146354 4.66887e-07)
(1.37275 0.0193178 2.84027e-07)
(1.36664 0.0240257 6.27751e-07)
(1.35937 0.0287258 2.47571e-07)
(1.35042 0.0333885 8.30923e-07)
(1.34049 0.0379666 8.86423e-08)
(1.32867 0.0424174 1.11891e-06)
(1.31626 0.0466875 -2.99036e-07)
(1.30161 0.0507229 1.60192e-06)
(1.28712 0.0544788 -1.08763e-06)
(1.26972 0.0578854 2.5247e-06)
(1.25384 0.0609344 -2.6024e-06)
(1.23365 0.0635168 4.36813e-06)
(1.21751 0.0657169 -5.45585e-06)
(1.19418 0.0673182 7.93245e-06)
(1.17964 0.0686189 -1.04788e-05)
(1.15192 0.069121 1.3466e-05)
(1.14225 0.0696143 -1.59597e-05)
(1.10692 0.0689014 1.05043e-05)
(1.0002 -0.00855742 1.02454e-06)
(1.00484 -0.0254613 -1.65669e-06)
(1.0141 -0.0416313 -2.90742e-06)
(1.02786 -0.0565081 -2.0521e-06)
(1.04559 -0.0695828 -1.23747e-06)
(1.06664 -0.0804361 -8.66779e-07)
(1.09028 -0.0887542 -3.2816e-07)
(1.11569 -0.0943669 5.36547e-07)
(1.14202 -0.0972805 1.51469e-06)
(1.16841 -0.0976859 2.38668e-06)
(1.19414 -0.0959432 2.89834e-06)
(1.21865 -0.0925246 2.89888e-06)
(1.24159 -0.0879289 2.44302e-06)
(1.26282 -0.0825993 1.77401e-06)
(1.28234 -0.076874 1.14568e-06)
(1.3002 -0.0709793 7.20746e-07)
(1.31649 -0.0650546 4.97514e-07)
(1.33128 -0.0591816 4.01897e-07)
(1.34465 -0.0534049 3.31027e-07)
(1.35664 -0.0477414 2.83691e-07)
(1.36733 -0.042189 2.42019e-07)
(1.37674 -0.0367317 2.41654e-07)
(1.38492 -0.0313482 2.23809e-07)
(1.39186 -0.0260118 2.42413e-07)
(1.3976 -0.0206966 2.14917e-07)
(1.40211 -0.015374 2.51975e-07)
(1.40541 -0.0100201 2.00513e-07)
(1.40744 -0.00461112 2.57395e-07)
(1.40823 0.000869647 1.21402e-07)
(1.40768 0.00643162 2.91511e-07)
(1.40586 0.0120772 2.5999e-07)
(1.40259 0.0178053 5.22662e-07)
(1.39805 0.0235945 3.26411e-07)
(1.3919 0.0294247 6.99696e-07)
(1.38455 0.0352553 2.99362e-07)
(1.37542 0.0410478 9.28048e-07)
(1.36528 0.0467437 1.41688e-07)
(1.35313 0.0522866 1.23785e-06)
(1.34036 0.0576112 -2.61279e-07)
(1.32522 0.0626447 1.74497e-06)
(1.31024 0.0673348 -1.08663e-06)
(1.29216 0.0715857 2.70221e-06)
(1.2757 0.0753947 -2.66838e-06)
(1.25468 0.0786126 4.6034e-06)
(1.23792 0.081359 -5.62755e-06)
(1.21361 0.0833421 8.2621e-06)
(1.19851 0.0849606 -1.07893e-05)
(1.16964 0.085556 1.38761e-05)
(1.15961 0.0861631 -1.63378e-05)
(1.1229 0.0852201 1.06335e-05)
(1.00022 -0.010579 1.12335e-06)
(1.00543 -0.0314706 -1.86979e-06)
(1.01581 -0.0514583 -3.35734e-06)
(1.03125 -0.0698368 -2.42734e-06)
(1.05116 -0.0859613 -1.53545e-06)
(1.07478 -0.0992899 -1.11463e-06)
(1.10128 -0.109401 -3.38712e-07)
(1.12968 -0.116063 8.53413e-07)
(1.15894 -0.119281 2.23792e-06)
(1.18803 -0.119314 3.50448e-06)
(1.21609 -0.116666 4.19691e-06)
(1.24247 -0.111994 4.06549e-06)
(1.26687 -0.105977 3.23359e-06)
(1.28918 -0.0991952 2.14472e-06)
(1.30952 -0.0920619 1.19692e-06)
(1.32802 -0.0848308 6.56224e-07)
(1.34484 -0.0776442 4.42926e-07)
(1.36009 -0.0705785 3.8619e-07)
(1.37385 -0.0636711 3.30222e-07)
(1.38622 -0.0569284 2.87762e-07)
(1.39726 -0.050337 2.51787e-07)
(1.40701 -0.0438699 2.60929e-07)
(1.41551 -0.0374962 2.4299e-07)
(1.42276 -0.03118 2.60168e-07)
(1.4288 -0.0248878 2.2252e-07)
(1.43358 -0.0185826 2.59446e-07)
(1.43714 -0.0122339 1.91838e-07)
(1.4394 -0.0058105 2.49083e-07)
(1.44041 0.000709543 5.70714e-08)
(1.44001 0.00733914 2.59339e-07)
(1.43832 0.0140834 2.46907e-07)
(1.4351 0.0209399 5.34068e-07)
(1.43056 0.0278834 3.1514e-07)
(1.42433 0.03489 7.2547e-07)
(1.41684 0.0419112 2.98369e-07)
(1.40745 0.0488979 9.84233e-07)
(1.39699 0.05578 1.44175e-07)
(1.38438 0.0624846 1.32567e-06)
(1.37112 0.0689341 -2.7158e-07)
(1.35529 0.0750331 1.87149e-06)
(1.33966 0.0807223 -1.13267e-06)
(1.32069 0.0858745 2.8809e-06)
(1.30345 0.0904963 -2.78757e-06)
(1.28134 0.0943889 4.86435e-06)
(1.26376 0.0977173 -5.86582e-06)
(1.23816 0.100097 8.65074e-06)
(1.22233 0.102051 -1.11876e-05)
(1.19196 0.102724 1.43747e-05)
(1.18146 0.103447 -1.68118e-05)
(1.14297 0.102219 1.07892e-05)
(1.00025 -0.012863 1.24414e-06)
(1.00616 -0.0382526 -2.0709e-06)
(1.01796 -0.0625616 -3.93102e-06)
(1.03551 -0.0849045 -2.89854e-06)
(1.05817 -0.104483 -1.9712e-06)
(1.08508 -0.120599 -1.49667e-06)
(1.11525 -0.132683 -3.54014e-07)
(1.1475 -0.140416 1.3327e-06)
(1.18055 -0.143791 3.34768e-06)
(1.21312 -0.143156 5.21292e-06)
(1.24413 -0.139219 6.13422e-06)
(1.27286 -0.132899 5.74835e-06)
(1.29901 -0.125119 4.31354e-06)
(1.32263 -0.116625 2.53425e-06)
(1.34396 -0.107902 1.06328e-06)
(1.36326 -0.0992114 4.17059e-07)
(1.38075 -0.0906799 2.89666e-07)
(1.39659 -0.0823666 3.00257e-07)
(1.41089 -0.0742926 2.54394e-07)
(1.42375 -0.066447 2.1255e-07)
(1.43525 -0.0587992 1.83464e-07)
(1.44542 -0.0513075 2.01608e-07)
(1.45433 -0.0439295 1.76468e-07)
(1.46196 -0.036619 1.82141e-07)
(1.46834 -0.0293335 1.24634e-07)
(1.47344 -0.0220264 1.55928e-07)
(1.47728 -0.0146608 7.53414e-08)
(1.47978 -0.00719619 1.48153e-07)
(1.48098 0.000393714 -9.72102e-08)
(1.48071 0.00813431 1.31214e-07)
(1.47911 0.0160266 1.10519e-07)
(1.47588 0.0240663 4.03173e-07)
(1.47128 0.0322265 1.48912e-07)
(1.46486 0.0404787 6.04065e-07)
(1.45713 0.048767 1.41183e-07)
(1.44734 0.057029 8.96306e-07)
(1.43643 0.065183 -6.45635e-09)
(1.42317 0.0731356 1.28582e-06)
(1.40925 0.0807975 -4.2305e-07)
(1.39252 0.0880445 1.89698e-06)
(1.37602 0.0948133 -1.30603e-06)
(1.3559 0.100936 2.99312e-06)
(1.33766 0.106435 -3.02262e-06)
(1.31416 0.111048 5.10285e-06)
(1.29555 0.115003 -6.21585e-06)
(1.26832 0.117795 9.06881e-06)
(1.25156 0.120106 -1.17016e-05)
(1.21931 0.120831 1.49477e-05)
(1.2082 0.121674 -1.73933e-05)
(1.16747 0.120086 1.09631e-05)
(1.00029 -0.0154737 1.38821e-06)
(1.00707 -0.0459895 -2.196e-06)
(1.0206 -0.0752584 -4.67233e-06)
(1.04079 -0.102153 -3.45797e-06)
(1.06689 -0.125719 -2.65303e-06)
(1.09796 -0.145042 -2.10832e-06)
(1.13282 -0.159346 -3.98586e-07)
(1.17003 -0.16819 2.08803e-06)
(1.20797 -0.171522 5.19573e-06)
(1.245 -0.169809 7.98038e-06)
(1.27974 -0.164052 9.04623e-06)
(1.31135 -0.155552 8.0221e-06)
(1.3396 -0.145569 5.52139e-06)
(1.36475 -0.13505 2.50089e-06)
(1.38724 -0.124535 4.71417e-07)
(1.40751 -0.114252 -1.11098e-07)
(1.42583 -0.104285 -4.68513e-08)
(1.4424 -0.0946616 3.68985e-08)
(1.45735 -0.0853767 -3.18019e-08)
(1.4708 -0.0763932 -9.36707e-08)
(1.48283 -0.0676579 -1.22572e-07)
(1.49348 -0.0591119 -1.01377e-07)
(1.5028 -0.0506996 -1.44707e-07)
(1.51078 -0.0423641 -1.62914e-07)
(1.51747 -0.0340527 -2.48488e-07)
(1.52281 -0.0257089 -2.36616e-07)
(1.52685 -0.0172892 -3.16053e-07)
(1.52947 -0.00874024 -1.97916e-07)
(1.53075 -4.4782e-05 -3.25206e-07)
(1.53048 0.00886383 -1.58152e-07)
(1.52882 0.0179685 -3.17726e-07)
(1.52543 0.0272587 -7.38189e-08)
(1.52061 0.0367099 -3.77858e-07)
(1.51385 0.0462889 1.34596e-07)
(1.50571 0.0559332 -3.74916e-07)
(1.49534 0.0655642 4.67811e-07)
(1.48381 0.0750896 -5.04367e-07)
(1.46971 0.0843897 9.37611e-07)
(1.45493 0.0933661 -8.85991e-07)
(1.43707 0.101856 1.66468e-06)
(1.41951 0.109799 -1.75008e-06)
(1.39798 0.11697 2.91144e-06)
(1.37853 0.123425 -3.48547e-06)
(1.35333 0.12881 5.22072e-06)
(1.33347 0.133446 -6.7564e-06)
(1.30428 0.136662 9.446e-06)
(1.28641 0.13936 -1.23717e-05)
(1.25188 0.140103 1.55477e-05)
(1.24005 0.141076 -1.80846e-05)
(1.19661 0.139026 1.11309e-05)
(1.00033 -0.0184867 1.56084e-06)
(1.00818 -0.0548873 -2.13223e-06)
(1.02382 -0.0899254 -5.64068e-06)
(1.04725 -0.122108 -4.0373e-06)
(1.07762 -0.150371 -3.78579e-06)
(1.11395 -0.173471 -3.10616e-06)
(1.15481 -0.190341 -6.89845e-07)
(1.19842 -0.200362 3.06176e-06)
(1.2427 -0.203378 8.24832e-06)
(1.28546 -0.200013 1.27044e-05)
(1.32488 -0.191707 1.37321e-05)
(1.35998 -0.180312 1.12717e-05)
(1.39067 -0.167562 6.20706e-06)
(1.41753 -0.154645 1.09869e-06)
(1.44135 -0.142107 -1.23177e-06)
(1.4627 -0.130082 -1.35615e-06)
(1.48194 -0.118573 -9.2739e-07)
(1.49928 -0.107558 -7.2875e-07)
(1.51487 -0.0969952 -8.36951e-07)
(1.52883 -0.0868117 -9.27416e-07)
(1.54126 -0.0769273 -9.59287e-07)
(1.5522 -0.0672662 -9.44126e-07)
(1.56171 -0.0577599 -1.01992e-06)
(1.56977 -0.0483424 -1.0672e-06)
(1.57646 -0.0389491 -1.17065e-06)
(1.58171 -0.0295164 -1.17451e-06)
(1.5856 -0.0199887 -1.21763e-06)
(1.58799 -0.0103027 -1.07073e-06)
(1.58902 -0.000440813 -8.36577e-07)
(1.58844 0.0096875 -7.4259e-07)
(1.58642 0.020061 -1.28264e-06)
(1.58258 0.0306651 -1.19304e-06)
(1.57729 0.0414793 -1.57885e-06)
(1.56994 0.0524634 -1.0108e-06)
(1.56119 0.0635508 -1.57131e-06)
(1.55007 0.0746427 -6.17717e-07)
(1.53775 0.08564 -1.64983e-06)
(1.52266 0.0963885 -5.30795e-09)
(1.50691 0.106787 -1.92745e-06)
(1.48779 0.11662 9.27482e-07)
(1.46907 0.12584 -2.68458e-06)
(1.44596 0.134145 2.4341e-06)
(1.4252 0.141645 -4.34469e-06)
(1.39812 0.147858 5.05845e-06)
(1.37692 0.153242 -7.60117e-06)
(1.34551 0.156898 9.65776e-06)
(1.32643 0.160027 -1.32479e-05)
(1.28931 0.160744 1.60779e-05)
(1.2767 0.161867 -1.88686e-05)
(1.23015 0.159234 1.12432e-05)
(1.0004 -0.0219889 1.78352e-06)
(1.00951 -0.0651738 -1.71663e-06)
(1.02768 -0.107009 -6.89224e-06)
(1.05509 -0.14539 -4.44042e-06)
(1.09071 -0.179322 -5.66647e-06)
(1.13368 -0.206972 -4.57543e-06)
(1.18222 -0.226914 -1.62666e-06)
(1.23414 -0.238225 3.85747e-06)
(1.28668 -0.24051 1.25662e-05)
(1.33684 -0.234663 2.00261e-05)
(1.38213 -0.222799 2.11631e-05)
(1.42136 -0.207565 1.63489e-05)
(1.45472 -0.191342 5.82095e-06)
(1.48331 -0.175575 -2.53559e-06)
(1.50835 -0.160724 -5.20785e-06)
(1.53064 -0.14675 -4.38429e-06)
(1.55055 -0.133536 -3.1804e-06)
(1.56827 -0.120995 -2.66818e-06)
(1.58401 -0.10903 -2.72929e-06)
(1.59789 -0.097527 -2.76134e-06)
(1.61005 -0.0863769 -2.73215e-06)
(1.62052 -0.0754909 -2.68049e-06)
(1.62941 -0.0647906 -2.75397e-06)
(1.63672 -0.054204 -2.76914e-06)
(1.64257 -0.043654 -2.80683e-06)
(1.6469 -0.0330744 -2.71394e-06)
(1.64986 -0.0223885 -2.58057e-06)
(1.65129 -0.0115348 -2.35808e-06)
(1.6514 -0.000448717 -1.69953e-06)
(1.6499 0.0109168 -1.79698e-06)
(1.64701 0.0225708 -2.81389e-06)
(1.64231 0.0345095 -2.94952e-06)
(1.63623 0.0467184 -3.48382e-06)
(1.62808 0.059146 -2.90394e-06)
(1.6186 0.0717271 -3.56525e-06)
(1.60666 0.0843386 -2.51044e-06)
(1.59361 0.096882 -3.61875e-06)
(1.5776 0.109158 -1.75184e-06)
(1.56104 0.121073 -3.76122e-06)
(1.5408 0.13234 -5.39138e-07)
(1.52113 0.142944 -4.31873e-06)
(1.49662 0.15247 1.34434e-06)
(1.47478 0.161118 -5.777e-06)
(1.44594 0.168225 4.41984e-06)
(1.42359 0.174449 -8.87178e-06)
(1.39002 0.178568 9.52603e-06)
(1.36989 0.182201 -1.43706e-05)
(1.33014 0.182856 1.63759e-05)
(1.31683 0.184175 -1.9687e-05)
(1.26708 0.180836 1.12183e-05)
(1.00048 -0.0260745 2.12645e-06)
(1.01107 -0.0770924 -7.66109e-07)
(1.03226 -0.127032 -8.42177e-06)
(1.06445 -0.172716 -4.36567e-06)
(1.1065 -0.213681 -8.7206e-06)
(1.15791 -0.246943 -6.26401e-06)
(1.21629 -0.270745 -3.3289e-06)
(1.2791 -0.283558 4.80951e-06)
(1.34249 -0.284449 1.8222e-05)
(1.40218 -0.274832 2.89398e-05)
(1.45471 -0.257915 3.01472e-05)
(1.49851 -0.237547 2.14754e-05)
(1.53427 -0.216969 3.77698e-06)
(1.56392 -0.197798 -8.98507e-06)
(1.58932 -0.18023 -1.21752e-05)
(1.61145 -0.163955 -9.9978e-06)
(1.63071 -0.148734 -7.58366e-06)
(1.64731 -0.134407 -6.56609e-06)
(1.66153 -0.120809 -6.26891e-06)
(1.67356 -0.107773 -5.85689e-06)
(1.6836 -0.09517 -5.45026e-06)
(1.69174 -0.0829023 -5.11296e-06)
(1.69817 -0.0708863 -4.98039e-06)
(1.70294 -0.0590445 -4.73933e-06)
(1.70627 -0.0472857 -4.51604e-06)
(1.70814 -0.0355444 -4.0348e-06)
(1.70878 -0.0237107 -3.50137e-06)
(1.70805 -0.0117469 -2.78897e-06)
(1.70623 0.000511132 -2.28297e-06)
(1.703 0.0130408 -2.51883e-06)
(1.69865 0.0258842 -3.88159e-06)
(1.6927 0.0390639 -4.21096e-06)
(1.68568 0.0525837 -4.98589e-06)
(1.67674 0.0663815 -4.51828e-06)
(1.66675 0.0804044 -5.41658e-06)
(1.65436 0.0945016 -4.37621e-06)
(1.64112 0.108588 -5.68918e-06)
(1.62483 0.122407 -3.70439e-06)
(1.60821 0.135888 -5.90928e-06)
(1.58766 0.148649 -2.39758e-06)
(1.56793 0.160731 -6.40184e-06)
(1.54287 0.171566 -2.37149e-07)
(1.52084 0.181486 -7.68747e-06)
(1.49106 0.189574 3.2699e-06)
(1.46838 0.196771 -1.05407e-05)
(1.43334 0.201416 8.90533e-06)
(1.4128 0.205679 -1.5693e-05)
(1.37098 0.20628 1.6227e-05)
(1.35737 0.207892 -2.04003e-05)
(1.30493 0.203773 1.09401e-05)
(1.0006 -0.0308316 2.77475e-06)
(1.0128 -0.0908981 8.92779e-07)
(1.03762 -0.150585 -9.9418e-06)
(1.0754 -0.204879 -3.77138e-06)
(1.12528 -0.254846 -1.38346e-05)
(1.1874 -0.295138 -8.00694e-06)
(1.25838 -0.324063 -6.07586e-06)
(1.33559 -0.338754 8.38292e-06)
(1.41337 -0.337312 2.8254e-05)
(1.4854 -0.321922 3.87242e-05)
(1.54622 -0.297473 3.49321e-05)
(1.59383 -0.2699 1.77081e-05)
(1.62994 -0.243693 -6.30191e-06)
(1.65798 -0.22035 -2.08511e-05)
(1.68066 -0.199439 -2.20494e-05)
(1.69922 -0.180285 -1.71631e-05)
(1.71413 -0.162548 -1.31926e-05)
(1.72577 -0.146006 -1.1512e-05)
(1.7346 -0.130417 -1.03785e-05)
(1.74096 -0.115566 -8.91162e-06)
(1.7452 -0.101307 -7.61501e-06)
(1.74754 -0.0875374 -6.59953e-06)
(1.74831 -0.0741662 -5.96955e-06)
(1.74767 -0.0611013 -5.21619e-06)
(1.74596 -0.0482324 -4.64416e-06)
(1.74322 -0.0354815 -3.59919e-06)
(1.73977 -0.022697 -2.76944e-06)
(1.73552 -0.00986944 -1.65375e-06)
(1.73079 0.00324478 -1.56926e-06)
(1.7252 0.016619 -2.23378e-06)
(1.71914 0.0303381 -3.61867e-06)
(1.71205 0.0444498 -3.80322e-06)
(1.70452 0.0589861 -4.68466e-06)
(1.69552 0.0738797 -4.30111e-06)
(1.68604 0.0891075 -5.46665e-06)
(1.67447 0.10449 -4.51828e-06)
(1.66251 0.119973 -6.16479e-06)
(1.6476 0.135231 -4.24049e-06)
(1.63274 0.150241 -6.83382e-06)
(1.61377 0.164492 -3.28243e-06)
(1.59595 0.178119 -7.70368e-06)
(1.57233 0.190343 -1.33011e-06)
(1.55209 0.201685 -9.21208e-06)
(1.52328 0.210885 2.15915e-06)
(1.50208 0.219258 -1.20659e-05)
(1.46733 0.22457 7.94592e-06)
(1.44788 0.229686 -1.68694e-05)
(1.40558 0.230351 1.54698e-05)
(1.3926 0.232441 -2.07137e-05)
(1.33909 0.227617 1.02749e-05)
(1.00073 -0.0363106 4.13158e-06)
(1.01465 -0.106873 3.28618e-06)
(1.04377 -0.17826 -1.02923e-05)
(1.08772 -0.24274 -3.67149e-06)
(1.14728 -0.304603 -2.26552e-05)
(1.22274 -0.353655 -1.19044e-05)
(1.30963 -0.389695 -1.3744e-05)
(1.40609 -0.406704 1.38564e-05)
(1.50334 -0.401849 4.71752e-05)
(1.59084 -0.377714 5.51221e-05)
(1.65861 -0.341404 3.23366e-05)
(1.70499 -0.30289 -7.58696e-06)
(1.73448 -0.268779 -3.83627e-05)
(1.75334 -0.239888 -4.52307e-05)
(1.7656 -0.214602 -3.44945e-05)
(1.77281 -0.191756 -2.13973e-05)
(1.7757 -0.170902 -1.42618e-05)
(1.77506 -0.151715 -1.17748e-05)
(1.7717 -0.133856 -9.73571e-06)
(1.76626 -0.117064 -7.25787e-06)
(1.75928 -0.101187 -5.23183e-06)
(1.75117 -0.0860965 -3.7765e-06)
(1.74242 -0.0716857 -2.82916e-06)
(1.73328 -0.0578024 -1.921e-06)
(1.72418 -0.044343 -1.29396e-06)
(1.71517 -0.0311057 -4.56505e-07)
(1.70661 -0.0180186 3.12883e-07)
(1.69836 -0.0048237 5.42981e-07)
(1.69082 0.00843488 -6.05532e-08)
(1.68345 0.021933 -7.01668e-07)
(1.6767 0.0358568 -1.45347e-06)
(1.66988 0.0502637 -1.08052e-06)
(1.66357 0.06522 -1.79382e-06)
(1.65657 0.0806604 -1.27139e-06)
(1.64991 0.0966087 -2.53104e-06)
(1.64172 0.112857 -1.59608e-06)
(1.6338 0.129401 -3.55684e-06)
(1.62322 0.145836 -1.78854e-06)
(1.61319 0.16221 -4.87545e-06)
(1.59901 0.177858 -1.55965e-06)
(1.58634 0.193043 -6.56794e-06)
(1.56748 0.206718 -4.49768e-07)
(1.55227 0.219653 -8.87565e-06)
(1.52774 0.230151 2.21915e-06)
(1.51103 0.23999 -1.22724e-05)
(1.47976 0.246237 7.27265e-06)
(1.4639 0.252556 -1.70448e-05)
(1.4242 0.253608 1.4181e-05)
(1.41344 0.25648 -2.00567e-05)
(1.36212 0.251337 9.12914e-06)
(1.00076 -0.0424883 6.90969e-06)
(1.01667 -0.125344 6.17895e-06)
(1.05041 -0.210438 -6.48987e-06)
(1.10086 -0.287382 -6.25511e-06)
(1.17263 -0.365185 -3.52795e-05)
(1.26357 -0.424907 -2.58434e-05)
(1.37063 -0.471448 -3.8014e-05)
(1.49346 -0.491276 8.12597e-06)
(1.61627 -0.48073 6.45052e-05)
(1.71875 -0.442339 8.39999e-05)
(1.78338 -0.386815 4.33646e-05)
(1.81309 -0.331258 -3.26524e-05)
(1.81877 -0.285332 -8.06593e-05)
(1.8121 -0.248453 -7.47733e-05)
(1.79903 -0.217317 -4.05179e-05)
(1.7815 -0.190094 -1.15467e-05)
(1.76067 -0.166008 -2.62701e-08)
(1.73788 -0.144406 2.658e-06)
(1.7144 -0.124752 4.2959e-06)
(1.69105 -0.106725 5.73216e-06)
(1.66849 -0.0901243 6.25734e-06)
(1.64715 -0.0747639 6.22431e-06)
(1.62746 -0.0604517 5.92374e-06)
(1.6096 -0.0469765 5.69643e-06)
(1.59385 -0.0341396 5.2044e-06)
(1.5801 -0.0217021 4.69539e-06)
(1.56861 -0.00947014 3.57874e-06)
(1.55893 0.0027814 2.53134e-06)
(1.55131 0.0150868 1.15583e-06)
(1.54532 0.0277285 2.2197e-06)
(1.5412 0.0409335 2.89957e-06)
(1.53807 0.0547643 3.92947e-06)
(1.53645 0.0693363 3.46103e-06)
(1.53499 0.0845925 4.21956e-06)
(1.5347 0.100612 3.00204e-06)
(1.53352 0.117157 4.00852e-06)
(1.53327 0.134289 1.86065e-06)
(1.53076 0.151519 3.50505e-06)
(1.52931 0.168985 3.97347e-08)
(1.52383 0.185851 3.01234e-06)
(1.52018 0.202537 -2.47487e-06)
(1.51016 0.217694 3.0169e-06)
(1.50389 0.232377 -5.76881e-06)
(1.48786 0.244398 4.24481e-06)
(1.47943 0.256039 -1.00352e-05)
(1.45598 0.263627 7.5649e-06)
(1.44699 0.271596 -1.51051e-05)
(1.41441 0.27363 1.26425e-05)
(1.408 0.277694 -1.75769e-05)
(1.36394 0.273087 7.54514e-06)
(1.00046 -0.0492631 1.19346e-05)
(1.0191 -0.146541 1.03253e-05)
(1.05629 -0.246928 6.49161e-06)
(1.11424 -0.340425 -1.15891e-05)
(1.20002 -0.438703 -4.32712e-05)
(1.30712 -0.512131 -5.99996e-05)
(1.44205 -0.576095 -8.47682e-05)
(1.60105 -0.599769 -1.33912e-05)
(1.74914 -0.572885 4.96542e-05)
(1.84777 -0.50579 9.65878e-05)
(1.87746 -0.418965 0.000108463)
(1.85741 -0.339404 2.16301e-05)
(1.80715 -0.277389 -6.68662e-05)
(1.74865 -0.230258 -6.85418e-05)
(1.69013 -0.192686 -1.79571e-05)
(1.63346 -0.162048 1.61629e-05)
(1.57971 -0.136679 2.57016e-05)
(1.53029 -0.11514 2.59276e-05)
(1.4861 -0.0964599 2.48275e-05)
(1.44735 -0.0800858 2.23241e-05)
(1.414 -0.0656252 1.87797e-05)
(1.3858 -0.0527239 1.54387e-05)
(1.36252 -0.0410416 1.27439e-05)
(1.34374 -0.0302685 1.07788e-05)
(1.32919 -0.020106 8.97781e-06)
(1.31835 -0.0102906 7.17084e-06)
(1.31104 -0.000555013 4.88654e-06)
(1.30661 0.00929526 3.69144e-06)
(1.30515 0.0195838 3.85724e-06)
(1.30607 0.0304632 6e-06)
(1.30945 0.0421094 7.08817e-06)
(1.31438 0.0546003 8.20591e-06)
(1.32127 0.0681022 7.80524e-06)
(1.32885 0.0825613 8.69124e-06)
(1.33802 0.0980985 7.59243e-06)
(1.34676 0.114452 8.76384e-06)
(1.35687 0.131739 6.70223e-06)
(1.36514 0.149398 8.43318e-06)
(1.37483 0.167657 4.9988e-06)
(1.38083 0.185525 7.81759e-06)
(1.38891 0.203578 2.39617e-06)
(1.39085 0.220182 7.22347e-06)
(1.39648 0.236673 -1.17944e-06)
(1.3926 0.250407 7.17292e-06)
(1.39556 0.264107 -5.74626e-06)
(1.38421 0.273494 8.35418e-06)
(1.38503 0.283522 -1.07539e-05)
(1.36462 0.287354 1.06619e-05)
(1.36458 0.29302 -1.27141e-05)
(1.33386 0.290303 5.58371e-06)
(0.999762 -0.0564957 1.90036e-05)
(1.02182 -0.169958 2.07214e-05)
(1.05904 -0.286877 3.27886e-05)
(1.12692 -0.403401 -1.14513e-05)
(1.22312 -0.525345 -2.48698e-05)
(1.34858 -0.621921 -0.000110184)
(1.52444 -0.71546 -0.000123061)
(1.72379 -0.736772 -3.72583e-05)
(1.86639 -0.663737 1.84754e-05)
(1.89368 -0.533525 4.25432e-05)
(1.81846 -0.396403 0.000152282)
(1.69549 -0.290778 0.000116381)
(1.54597 -0.214012 1.02649e-05)
(1.41539 -0.161229 -1.61827e-05)
(1.30824 -0.123456 1.86881e-05)
(1.22148 -0.0972321 2.74488e-05)
(1.15244 -0.0789096 1.79897e-05)
(1.09918 -0.0654196 1.21413e-05)
(1.0591 -0.0548681 1.09009e-05)
(1.02945 -0.0461786 9.90428e-06)
(1.00802 -0.0386475 8.48951e-06)
(0.993108 -0.0318052 7.23915e-06)
(0.983495 -0.0253373 6.16534e-06)
(0.97819 -0.0190292 5.25989e-06)
(0.976578 -0.0127026 4.15796e-06)
(0.978014 -0.00620091 3.22408e-06)
(0.982329 0.000618541 2.19559e-06)
(0.988997 0.00800515 1.75063e-06)
(0.997943 0.0162017 1.95237e-06)
(1.00885 0.0252363 3.36146e-06)
(1.02178 0.0352491 4.20951e-06)
(1.03611 0.0463327 5.50271e-06)
(1.05221 0.0586733 5.61324e-06)
(1.06906 0.0722163 6.97386e-06)
(1.0875 0.087105 6.48506e-06)
(1.10584 0.103071 8.19789e-06)
(1.1257 0.120267 6.79319e-06)
(1.14426 0.138102 9.02862e-06)
(1.16448 0.156864 6.27874e-06)
(1.18177 0.175479 9.34349e-06)
(1.20129 0.194629 4.78499e-06)
(1.21562 0.212509 9.16941e-06)
(1.23341 0.230635 2.24189e-06)
(1.24306 0.246088 8.63243e-06)
(1.25826 0.261832 -1.26377e-06)
(1.26156 0.273326 7.94203e-06)
(1.27342 0.285571 -4.97443e-06)
(1.26908 0.292003 7.14176e-06)
(1.27645 0.299519 -5.75515e-06)
(1.26443 0.300298 2.98972e-06)
(0.999092 -0.0639155 2.61673e-05)
(1.02308 -0.193541 4.16593e-05)
(1.05681 -0.329011 6.51058e-05)
(1.13382 -0.474069 1.25756e-05)
(1.22904 -0.622997 3.41594e-05)
(1.38473 -0.764865 -0.000178921)
(1.60604 -0.894269 -7.15654e-05)
(1.80735 -0.87002 -0.000131363)
(1.85849 -0.778927 5.15501e-05)
(1.7479 -0.533531 -0.00014581)
(1.49863 -0.305053 -0.000106415)
(1.21881 -0.162862 -5.51839e-05)
(0.799949 -0.0529331 -3.58076e-05)
(0.691501 -0.0373129 -2.96438e-05)
(0.63319 -0.0340961 2.75542e-05)
(0.602172 -0.0370123 3.50707e-05)
(0.588427 -0.0401718 2.48065e-05)
(0.585143 -0.0414563 1.72018e-05)
(0.587443 -0.0408263 1.11724e-05)
(0.59261 -0.0388087 5.68083e-06)
(0.599492 -0.0358511 1.94804e-06)
(0.607636 -0.0322735 -1.09909e-07)
(0.616908 -0.0282734 -1.02255e-06)
(0.627261 -0.0239544 -1.25243e-06)
(0.638762 -0.0193191 -1.17936e-06)
(0.651403 -0.0143315 -6.72456e-07)
(0.665325 -0.00884408 8.96912e-08)
(0.680502 -0.00279181 6.06576e-07)
(0.696971 0.00409324 -5.19138e-07)
(0.714628 0.0118926 -1.05332e-06)
(0.733676 0.0207924 -8.40507e-07)
(0.753834 0.0308618 2.348e-07)
(0.775416 0.0422861 5.73098e-07)
(0.797813 0.0550282 2.05057e-06)
(0.821689 0.0692494 2.029e-06)
(0.845888 0.0847118 3.99763e-06)
(0.871699 0.101572 3.28691e-06)
(0.897019 0.11928 5.92577e-06)
(0.92423 0.138121 4.12105e-06)
(0.949697 0.157062 7.48377e-06)
(0.977557 0.176779 4.20942e-06)
(1.00191 0.195492 8.20592e-06)
(1.02942 0.214712 3.47008e-06)
(1.05121 0.23155 7.66017e-06)
(1.07703 0.248893 2.19235e-06)
(1.0949 0.262422 5.30235e-06)
(1.11696 0.276631 1.24449e-06)
(1.13017 0.286093 9.7407e-07)
(1.14471 0.295464 2.91992e-06)
(1.15434 0.301126 -9.58155e-07)
(0.998812 -0.0706615 3.16521e-05)
(1.02041 -0.214028 6.91867e-05)
(1.04838 -0.369978 9.1114e-05)