/*--------------------------------*- C++ -*----------------------------------*\
  =========                 |
  \\      /  F ield         | OpenFOAM: The Open Source CFD Toolbox
   \\    /   O peration     | Website:  https://openfoam.org
    \\  /    A nd           | Version:  8
     \\/     M anipulation  |
\*---------------------------------------------------------------------------*/
FoamFile
{
    version     2.0;
    format      ascii;
    class       volScalarField;
    location    "32";
    object      p;
}
// * * * * * * * * * * * * * * * * * * * * * * * * * * * * * * * * * * * * * //

dimensions      [0 2 -2 0 0 0 0];

internalField   nonuniform List<scalar> 
464
(
4.43415e-08
3.08776e-06
1.05494e-05
2.16241e-05
3.64243e-05
5.46038e-05
7.60695e-05
9.99368e-05
0.000127285
0.000153925
0.00018701
0.000211393
-3.11288e-06
-5.89549e-08
7.47797e-06
1.86765e-05
3.36576e-05
5.20903e-05
7.38813e-05
9.82218e-05
0.000126147
0.000153698
0.000187803
0.000214343
-1.08945e-05
-7.77789e-06
-4.41447e-08
1.14568e-05
2.68481e-05
4.58009e-05
6.81364e-05
9.32159e-05
0.000121239
0.000149947
0.000182114
0.00021107
-2.28186e-05
-1.95958e-05
-1.15496e-05
4.45223e-07
1.65307e-05
3.64127e-05
5.99131e-05
8.65393e-05
0.000116429
0.000147598
0.000182408
0.000214376
-3.92759e-05
-3.59195e-05
-2.74696e-05
-1.48387e-05
2.13195e-06
2.3162e-05
4.80141e-05
7.61569e-05
0.000107273
0.000140329
0.000175502
0.000210894
-6.05465e-05
-5.70205e-05
-4.8066e-05
-3.46205e-05
-1.64998e-05
6.08325e-06
3.29097e-05
6.36566e-05
9.82316e-05
0.000135542
0.000175607
0.000215648
-8.66303e-05
-8.29844e-05
-7.35249e-05
-5.92174e-05
-3.98135e-05
-1.55043e-05
1.3405e-05
4.64837e-05
8.30045e-05
0.00012248
0.00016444
0.000208423
-0.000119103
-0.000115183
-0.000105021
-8.95096e-05
-6.8541e-05
-4.20179e-05
-1.02148e-05
2.68875e-05
6.92006e-05
0.000115726
0.000165946
0.000217674
-0.000155333
-0.000151537
-0.000141004
-0.000124791
-0.00010252
-7.40586e-05
-3.98462e-05
-3.76041e-07
4.33911e-05
9.13897e-05
0.000143042
0.000198473
-0.000202139
-0.00019799
-0.000186855
-0.000168916
-0.000144696
-0.00011297
-7.4632e-05
-2.84532e-05
2.47444e-05
8.4104e-05
0.000148963
0.000217609
-0.000249479
-0.000246524
-0.000235175
-0.000217467
-0.000192194
-0.000158757
-0.00011847
-7.18465e-05
-1.93014e-05
3.93184e-05
0.000102951
0.000173581
-0.000312403
-0.000308877
-0.000297941
-0.000278222
-0.000251543
-0.000213449
-0.000167163
-0.00010847
-4.18106e-05
3.37048e-05
0.000116804
0.000209513
-0.000373929
-0.000378288
-0.000363349
-0.000348897
-0.000319496
-0.000282205
-0.000235939
-0.000180037
-0.000116243
-4.37604e-05
3.10775e-05
0.000125605
-0.0004478
-0.000437555
-0.000439785
-0.000410013
-0.000390105
-0.000340695
-0.000289891
-0.00021817
-0.000138669
-4.45065e-05
5.5822e-05
0.000182231
-0.000532186
-0.000591301
-0.000537008
-0.000572552
-0.000511361
-0.000477428
-0.00041386
-0.000340881
-0.000260909
-0.00016626
-8.69955e-05
4.51473e-05
-0.000602171
-0.000561882
-0.000607456
-0.00056176
-0.000564653
-0.000504735
-0.00045465
-0.000367771
-0.000277943
-0.000160298
-5.2263e-05
0.0001161
-0.000720713
-0.000930555
-0.000796335
-0.000934412
-0.000790808
-0.000778791
-0.000662092
-0.000563822
-0.00045861
-0.000329225
-0.000252731
-6.30399e-05
-0.000777076
-0.00066491
-0.000822495
-0.000767717
-0.000800279
-0.000735234
-0.000677922
-0.000572319
-0.000467841
-0.000321974
-0.000218717
-2.27694e-06
-0.000798349
-0.00151572
-0.0012192
-0.00153991
-0.00123144
-0.00120894
-0.000995027
-0.000851975
-0.000698281
-0.000522687
-0.000439321
-0.000192539
-0.00189449
-0.000929776
-0.00114514
-0.00123127
-0.00116894
-0.00110037
-0.000987383
-0.000839463
-0.000698077
-0.000511933
-0.00041628
-0.000146933
0.000252248
0.00027067
0.000291821
0.000305415
0.000318333
0.000326984
0.000333352
0.000335888
0.000257026
0.00027656
0.000299686
0.000314742
0.00032899
0.000338746
0.000345867
0.000348739
0.000244922
0.000270738
0.000296958
0.000317474
0.000335531
0.000348682
0.000357943
0.000361846
0.000250859
0.000279424
0.000308271
0.0003314
0.000351696
0.000366854
0.000377442
0.000382006
0.000247541
0.000281597
0.000314177
0.000342774
0.000367283
0.000386389
0.000399568
0.000405474
0.000256723
0.000295248
0.000332072
0.000365011
0.000393301
0.000415884
0.000431292
0.000438429
0.000253549
0.000298313
0.000341035
0.000381128
0.000414989
0.000443678
0.000462458
0.000471942
0.000270393
0.00032281
0.000372843
0.000420924
0.000461498
0.000497086
0.000520149
0.000532318
0.000255984
0.000316516
0.000372687
0.000432992
0.000477985
0.000526982
0.000552408
0.000571181
0.000287926
0.000361962
0.000430602
0.000505973
0.000563166
0.000626109
0.000659849
0.000685071
0.000243818
0.000331959
0.000397235
0.000499443
0.000551142
0.000647902
0.000678035
0.000723746
0.000300117
0.000409525
0.000498892
0.000624872
0.000703309
0.000825063
0.000875824
0.000937441
0.000197884
0.000335125
0.000392034
0.000574666
0.000616001
0.000819913
0.000848313
0.000975982
0.000288364
0.000452562
0.000556074
0.000771187
0.000870755
0.00111936
0.00120154
0.00137838
9.55744e-05
0.000308653
0.000313501
0.000631577
0.000612179
0.00103726
0.00104654
0.00143731
0.000219967
0.000460765
0.00054318
0.000901633
0.000984246
0.00149647
0.00162798
0.00220103
-7.35142e-05
0.000234333
9.7129e-05
0.000597628
0.000360629
0.00116854
0.00102636
0.00219069
4.49671e-05
0.000388304
0.000347786
0.000900354
0.000736798
0.00171497
0.00152945
0.00341497
-0.000275114
0.000131285
-0.000266051
0.000390068
-0.000482424
0.000711976
-0.000363355
0.00247122
-0.00018709
0.000234504
-1.45875e-05
0.000637897
0.000369104
0.00178526
0.00314849
0.00826102
0.000306776
0.000307146
0.000307986
0.000308988
0.00031011
0.000311064
0.000311814
0.000312132
0.000307546
0.000307928
0.000308783
0.000309815
0.000310937
0.000311895
0.000312643
0.000312957
0.000304405
0.000305026
0.000306385
0.000307927
0.000309654
0.000311078
0.000312192
0.000312658
0.000306543
0.000307249
0.000308735
0.000310453
0.000312262
0.000313773
0.000314933
0.000315416
0.000298897
0.00030043
0.000303422
0.00030653
0.000309889
0.00031253
0.000314552
0.000315387
0.000302457
0.00030419
0.000307497
0.000310983
0.000314556
0.000317415
0.000319577
0.000320466
0.000286036
0.000290817
0.000298382
0.000305005
0.000311853
0.000316795
0.000320543
0.000322047
0.000290846
0.000296247
0.000304421
0.000311763
0.000319084
0.000324547
0.000328616
0.000330265
)
;

boundaryField
{
    movingWall
    {
        type            zeroGradient;
    }
    fixedWalls
    {
        type            zeroGradient;
    }
    frontAndBack
    {
        type            empty;
    }
}


// ************************************************************************* //
