/*--------------------------------*- C++ -*----------------------------------*\
  =========                 |
  \\      /  F ield         | OpenFOAM: The Open Source CFD Toolbox
   \\    /   O peration     | Website:  https://openfoam.org
    \\  /    A nd           | Version:  8
     \\/     M anipulation  |
\*---------------------------------------------------------------------------*/
FoamFile
{
    version     2.0;
    format      ascii;
    class       volVectorField;
    location    "100";
    object      U;
}
// * * * * * * * * * * * * * * * * * * * * * * * * * * * * * * * * * * * * * //

dimensions      [0 1 -1 0 0 0 0];

internalField   nonuniform List<vector> 
12504
(
(1.00013 -0.000623183 6.45133e-07)
(1.00317 -0.00185225 -1.26363e-06)
(1.00921 -0.00301273 -2.16655e-06)
(1.01814 -0.00405259 -1.52882e-06)
(1.02953 -0.00492695 -9.12219e-07)
(1.0429 -0.00559882 -6.58854e-07)
(1.05768 -0.00604049 -4.54453e-07)
(1.07328 -0.00623571 -7.3304e-08)
(1.08908 -0.00618122 3.60123e-07)
(1.10443 -0.00588699 7.60161e-07)
(1.11877 -0.00537463 1.08575e-06)
(1.13156 -0.00467482 1.30306e-06)
(1.14238 -0.00382334 1.40084e-06)
(1.15089 -0.00285749 1.38994e-06)
(1.15685 -0.00181314 1.30326e-06)
(1.16011 -0.000723753 1.17851e-06)
(1.16058 0.000379127 1.06667e-06)
(1.15828 0.00146428 1.02019e-06)
(1.1533 0.00250032 1.0063e-06)
(1.1458 0.00345418 9.61452e-07)
(1.13601 0.00429148 8.65561e-07)
(1.12428 0.00497779 7.12417e-07)
(1.11103 0.00548074 5.37481e-07)
(1.09675 0.00577231 3.37416e-07)
(1.082 0.00583151 1.56614e-07)
(1.06741 0.00564602 -5.98828e-08)
(1.05358 0.00521448 -1.8764e-07)
(1.04115 0.0045457 -3.26323e-07)
(1.03067 0.00366154 -3.65001e-07)
(1.0227 0.00259201 -4.5372e-07)
(1.0176 0.0013819 -4.06093e-07)
(1.01573 7.92198e-05 -4.79604e-07)
(1.01719 -0.00125262 -5.93711e-07)
(1.02203 -0.00255446 -7.21434e-07)
(1.03004 -0.0037465 -6.89331e-07)
(1.04089 -0.00477542 -6.15564e-07)
(1.0541 -0.0055583 -6.1063e-07)
(1.06886 -0.00606863 -1.3247e-07)
(1.08471 -0.00623929 -4.5635e-07)
(1.10022 -0.00609413 7.77624e-07)
(1.11556 -0.00559903 -5.93345e-07)
(1.12825 -0.00483734 2.11325e-06)
(1.14024 -0.00381197 -1.64155e-06)
(1.147 -0.00264279 4.04422e-06)
(1.15418 -0.00136807 -4.25269e-06)
(1.15294 -6.67357e-05 7.21563e-06)
(1.15573 0.00113642 -8.56821e-06)
(1.14541 0.00239722 1.14021e-05)
(1.14592 0.00322144 -1.18565e-05)
(1.12612 0.00455297 7.42363e-06)
(1.00013 -0.00188931 6.3388e-07)
(1.00326 -0.00561123 -1.31576e-06)
(1.00947 -0.00912523 -2.19226e-06)
(1.01865 -0.0122752 -1.54892e-06)
(1.03037 -0.0149236 -9.41422e-07)
(1.04412 -0.0169575 -6.8306e-07)
(1.05932 -0.0182928 -4.64539e-07)
(1.07537 -0.0188803 -4.73248e-08)
(1.09159 -0.0187102 4.1259e-07)
(1.10736 -0.0178133 8.32512e-07)
(1.12206 -0.0162563 1.16854e-06)
(1.13517 -0.0141334 1.38236e-06)
(1.14624 -0.0115542 1.46397e-06)
(1.15494 -0.00863202 1.4322e-06)
(1.16102 -0.00547545 1.32623e-06)
(1.16434 -0.00218461 1.18648e-06)
(1.16483 0.0011463 1.06868e-06)
(1.16249 0.0044245 1.03979e-06)
(1.15741 0.00755575 1.04617e-06)
(1.14975 0.0104405 1.01566e-06)
(1.13975 0.0129747 9.26992e-07)
(1.12775 0.0150539 7.7429e-07)
(1.11418 0.0165793 5.93616e-07)
(1.09955 0.0174654 3.80008e-07)
(1.08442 0.0176478 1.90031e-07)
(1.06945 0.017089 -4.16255e-08)
(1.05525 0.0157842 -1.83436e-07)
(1.04248 0.0137601 -3.32115e-07)
(1.03172 0.0110824 -3.78571e-07)
(1.02354 0.00784233 -4.64203e-07)
(1.01832 0.00417438 -4.3109e-07)
(1.01642 0.000224225 -5.60361e-07)
(1.01796 -0.00381471 -6.21248e-07)
(1.02301 -0.00776452 -7.39794e-07)
(1.03132 -0.0113826 -7.06545e-07)
(1.04258 -0.0145057 -6.28661e-07)
(1.05628 -0.0168809 -6.19714e-07)
(1.07159 -0.0184268 -1.29733e-07)
(1.08801 -0.0189364 -4.42449e-07)
(1.10405 -0.0184854 8.08007e-07)
(1.11987 -0.0169638 -5.49315e-07)
(1.13291 -0.0146373 2.15601e-06)
(1.14517 -0.0115009 -1.59576e-06)
(1.15199 -0.00794642 4.04403e-06)
(1.15916 -0.00405588 -4.20771e-06)
(1.15769 -0.000125821 7.20305e-06)
(1.1603 0.00354037 -8.49551e-06)
(1.14951 0.00731292 1.13843e-05)
(1.14984 0.00982468 -1.1865e-05)
(1.1294 0.0137854 7.44986e-06)
(1.00014 -0.00320999 6.59622e-07)
(1.00344 -0.00952998 -1.39564e-06)
(1.01 -0.0154977 -2.30051e-06)
(1.0197 -0.0208493 -1.62724e-06)
(1.03209 -0.0253483 -9.95123e-07)
(1.04661 -0.0288008 -7.1277e-07)
(1.06268 -0.0310627 -4.61984e-07)
(1.07961 -0.0320493 2.4802e-08)
(1.09673 -0.0317445 5.48874e-07)
(1.11333 -0.0302027 1.01874e-06)
(1.12878 -0.027541 1.37894e-06)
(1.14252 -0.0239244 1.58085e-06)
(1.1541 -0.0195432 1.61738e-06)
(1.16317 -0.0145916 1.52538e-06)
(1.16951 -0.00925289 1.36462e-06)
(1.17296 -0.00369318 1.18959e-06)
(1.17348 0.00193243 1.06338e-06)
(1.17105 0.00747171 1.05854e-06)
(1.16577 0.0127679 1.09818e-06)
(1.15779 0.0176539 1.09601e-06)
(1.14736 0.0219533 1.02421e-06)
(1.13481 0.0254872 8.73791e-07)
(1.12059 0.028086 6.81702e-07)
(1.10524 0.0296018 4.43714e-07)
(1.08935 0.0299232 2.28164e-07)
(1.07359 0.0289845 -3.94323e-08)
(1.05864 0.0267765 -2.11165e-07)
(1.0452 0.0233442 -3.83202e-07)
(1.03387 0.0187977 -4.39155e-07)
(1.02526 0.0132922 -5.26144e-07)
(1.01979 0.00705369 -4.84504e-07)
(1.01786 0.000330016 -6.3684e-07)
(1.01957 -0.00654875 -6.80327e-07)
(1.02502 -0.0132814 -7.8788e-07)
(1.03397 -0.0194529 -7.32027e-07)
(1.04608 -0.0247808 -6.26874e-07)
(1.06079 -0.0288288 -5.84888e-07)
(1.07723 -0.0314539 -4.72599e-08)
(1.09481 -0.0322962 -3.45866e-07)
(1.11195 -0.0314867 9.67275e-07)
(1.12876 -0.0288323 -4.34054e-07)
(1.14252 -0.0248022 2.34317e-06)
(1.15529 -0.0193819 -1.53192e-06)
(1.16224 -0.0132774 4.2397e-06)
(1.16936 -0.00659798 -4.25579e-06)
(1.16739 7.91079e-05 7.49881e-06)
(1.16958 0.00632962 -8.63678e-06)
(1.15783 0.0126413 1.17566e-05)
(1.15775 0.0168951 -1.22289e-05)
(1.13601 0.0234262 7.65878e-06)
(1.00015 -0.00462056 7.14277e-07)
(1.00372 -0.013719 -1.51363e-06)
(1.01082 -0.0223129 -2.49511e-06)
(1.02132 -0.0300223 -1.77228e-06)
(1.03474 -0.036503 -1.08696e-06)
(1.05047 -0.0414721 -7.67592e-07)
(1.06787 -0.0447178 -4.50549e-07)
(1.0862 -0.0461156 1.33379e-07)
(1.10469 -0.0456425 7.66354e-07)
(1.12259 -0.0433816 1.32633e-06)
(1.13919 -0.0395105 1.7304e-06)
(1.15389 -0.034278 1.91161e-06)
(1.16623 -0.0279678 1.86928e-06)
(1.17587 -0.0208633 1.67348e-06)
(1.18259 -0.0132254 1.42208e-06)
(1.18625 -0.00528452 1.1932e-06)
(1.1868 0.00274737 1.06137e-06)
(1.18425 0.0106615 1.09615e-06)
(1.17867 0.0182403 1.18876e-06)
(1.17021 0.0252473 1.23222e-06)
(1.15911 0.0314286 1.18682e-06)
(1.14572 0.0365241 1.03782e-06)
(1.13051 0.0402843 8.24372e-07)
(1.11404 0.0424908 5.45189e-07)
(1.09696 0.0429783 2.81739e-07)
(1.08001 0.0416485 -4.41169e-08)
(1.06391 0.0384864 -2.61528e-07)
(1.04942 0.0335549 -4.67122e-07)
(1.03722 0.0270116 -5.35255e-07)
(1.02796 0.0190779 -6.24457e-07)
(1.02211 0.0100772 -5.45541e-07)
(1.02012 0.000364556 -7.15001e-07)
(1.02212 -0.00958394 -7.66067e-07)
(1.02823 -0.0193328 -8.61046e-07)
(1.03819 -0.0282779 -7.65492e-07)
(1.05164 -0.0360018 -6.15625e-07)
(1.06796 -0.0418616 -5.2322e-07)
(1.08617 -0.0456383 9.31278e-08)
(1.10559 -0.0468005 -1.77564e-07)
(1.12446 -0.0455328 1.26092e-06)
(1.1428 -0.0415601 -2.08013e-07)
(1.15768 -0.0355729 2.65699e-06)
(1.17121 -0.0275732 -1.4556e-06)
(1.17829 -0.0186096 4.59092e-06)
(1.18527 -0.00885903 -4.29604e-06)
(1.18245 0.000796686 8.07035e-06)
(1.18392 0.00979811 -8.94312e-06)
(1.17062 0.0187334 1.24713e-05)
(1.16983 0.0247709 -1.29266e-05)
(1.14603 0.0337942 8.00863e-06)
(1.00017 -0.00616298 7.86069e-07)
(1.0041 -0.0183019 -1.68165e-06)
(1.01196 -0.0297732 -2.78354e-06)
(1.02357 -0.0400682 -1.99669e-06)
(1.03842 -0.0487227 -1.23605e-06)
(1.05585 -0.0553525 -8.67523e-07)
(1.07511 -0.059666 -4.35298e-07)
(1.09539 -0.0614911 2.99424e-07)
(1.11581 -0.060797 1.10684e-06)
(1.13551 -0.0577033 1.81774e-06)
(1.1537 -0.052464 2.29448e-06)
(1.16973 -0.045433 2.43772e-06)
(1.18311 -0.0370071 2.26404e-06)
(1.19351 -0.0275718 1.90131e-06)
(1.20073 -0.0174689 1.51045e-06)
(1.20467 -0.0069893 1.20271e-06)
(1.20527 0.00360553 1.06343e-06)
(1.20255 0.014056 1.16788e-06)
(1.19656 0.0240861 1.34927e-06)
(1.18744 0.0333876 1.46382e-06)
(1.17543 0.0416216 1.45666e-06)
(1.16089 0.0484351 1.30774e-06)
(1.1443 0.0534857 1.05979e-06)
(1.12629 0.0564721 7.16254e-07)
(1.10756 0.0571648 3.77535e-07)
(1.08894 0.0554268 -3.6116e-08)
(1.07124 0.0512344 -3.21087e-07)
(1.05531 0.0446697 -5.70887e-07)
(1.0419 0.0359409 -6.64509e-07)
(1.03175 0.0253405 -7.59368e-07)
(1.0254 0.0132972 -6.46405e-07)
(1.02336 0.000279393 -8.30398e-07)
(1.02579 -0.0130781 -8.89093e-07)
(1.03285 -0.0261886 -9.68724e-07)
(1.04427 -0.0382339 -8.16786e-07)
(1.05965 -0.048637 -5.99431e-07)
(1.07827 -0.0565135 -4.33261e-07)
(1.09902 -0.0615458 2.98742e-07)
(1.12106 -0.0630012 6.62495e-08)
(1.14238 -0.0611166 1.65826e-06)
(1.16287 -0.0555332 1.21246e-07)
(1.17928 -0.0472016 3.19545e-06)
(1.19382 -0.0361681 -1.2594e-06)
(1.20099 -0.0238866 5.09469e-06)
(1.20764 -0.0106367 -4.47e-06)
(1.20352 0.00233676 8.79559e-06)
(1.20382 0.0143386 -9.39479e-06)
(1.18823 0.0259993 1.34454e-05)
(1.18636 0.0338815 -1.38986e-05)
(1.15958 0.0452494 8.50114e-06)
(1.00019 -0.0078832 8.77576e-07)
(1.00462 -0.0234147 -1.88838e-06)
(1.01345 -0.0381027 -3.16431e-06)
(1.02654 -0.0512931 -2.30134e-06)
(1.04329 -0.0623846 -1.45028e-06)
(1.06295 -0.0708741 -1.02589e-06)
(1.0847 -0.0763713 -4.14508e-07)
(1.10758 -0.0786443 5.48231e-07)
(1.13056 -0.0776526 1.62831e-06)
(1.15265 -0.0735624 2.58698e-06)
(1.17293 -0.0667291 3.17949e-06)
(1.19068 -0.0576441 3.24645e-06)
(1.20538 -0.0468475 2.84595e-06)
(1.21674 -0.0348445 2.21147e-06)
(1.22459 -0.0220614 1.60737e-06)
(1.22887 -0.00884083 1.19108e-06)
(1.22954 0.00451866 1.05501e-06)
(1.2266 0.0177166 1.27423e-06)
(1.2201 0.0304225 1.59267e-06)
(1.21014 0.0422529 1.81297e-06)
(1.19695 0.0527723 1.86252e-06)
(1.18089 0.0615185 1.71368e-06)
(1.16249 0.068037 1.41292e-06)
(1.14244 0.0719253 9.72482e-07)
(1.12155 0.0728757 5.24475e-07)
(1.10073 0.0707041 -1.93018e-08)
(1.08093 0.0653755 -3.92682e-07)
(1.0631 0.0569934 -7.06009e-07)
(1.04812 0.045821 -8.14795e-07)
(1.03683 0.0322291 -9.22987e-07)
(1.02984 0.016758 -8.32752e-07)
(1.02776 3.02645e-06 -1.03018e-06)
(1.03081 -0.0172279 -1.06842e-06)
(1.03918 -0.0341759 -1.11229e-06)
(1.0526 -0.0497727 -8.77015e-07)
(1.07061 -0.0632459 -5.74216e-07)
(1.09237 -0.0734193 -3.11938e-07)
(1.11657 -0.0798435 5.78388e-07)
(1.14215 -0.0815449 3.74324e-07)
(1.16675 -0.0788076 2.14879e-06)
(1.19011 -0.0711904 4.00827e-07)
(1.20854 -0.0599443 3.89505e-06)
(1.22432 -0.0452213 -1.08305e-06)
(1.23148 -0.0289577 5.79569e-06)
(1.23752 -0.0116105 -4.61584e-06)
(1.23144 0.00513697 9.79255e-06)
(1.22999 0.0204754 -9.93084e-06)
(1.21116 0.0349705 1.47042e-05)
(1.2077 0.0447676 -1.51801e-05)
(1.17681 0.0582295 9.1427e-06)
(1.00021 -0.00983347 9.91584e-07)
(1.00527 -0.029211 -2.11543e-06)
(1.01536 -0.0475575 -3.65032e-06)
(1.03033 -0.0640492 -2.69508e-06)
(1.04951 -0.0779268 -1.75273e-06)
(1.07207 -0.0885434 -1.27038e-06)
(1.09704 -0.0953805 -3.95953e-07)
(1.12329 -0.0981279 9.05164e-07)
(1.1496 -0.0967291 2.40659e-06)
(1.17477 -0.0914121 3.76842e-06)
(1.19772 -0.0826711 4.55038e-06)
(1.21763 -0.0711855 4.48058e-06)
(1.23397 -0.0576823 3.69579e-06)
(1.24648 -0.0428108 2.61764e-06)
(1.25508 -0.0270816 1.68176e-06)
(1.25977 -0.0108736 1.11787e-06)
(1.26053 0.00549785 1.01116e-06)
(1.25733 0.0217071 1.41997e-06)
(1.2502 0.0373759 1.9514e-06)
(1.23919 0.0520403 2.32776e-06)
(1.22451 0.0651525 2.45841e-06)
(1.20653 0.0761167 2.30779e-06)
(1.18581 0.0843391 1.92753e-06)
(1.16315 0.0892903 1.34413e-06)
(1.13947 0.0905655 7.39339e-07)
(1.11583 0.0879234 9.58283e-09)
(1.09333 0.0813161 -4.83498e-07)
(1.0731 0.0708711 -8.67444e-07)
(1.05612 0.0569156 -9.97603e-07)
(1.04338 0.0399045 -1.10224e-06)
(1.03562 0.020503 -9.01793e-07)
(1.03353 -0.000558193 -1.16548e-06)
(1.03742 -0.0222768 -1.24324e-06)
(1.04754 -0.0436937 -1.25851e-06)
(1.06361 -0.0634401 -9.48348e-07)
(1.08507 -0.0804992 -5.72808e-07)
(1.11094 -0.0933334 -2.29867e-07)
(1.13961 -0.101319 7.94909e-07)
(1.16977 -0.103188 6.21821e-07)
(1.19862 -0.0992703 2.62613e-06)
(1.22567 -0.0890408 7.02699e-07)
(1.24668 -0.0741008 4.48083e-06)
(1.26401 -0.0547914 -1.40004e-06)
(1.27104 -0.0336308 5.8896e-06)
(1.27608 -0.0113471 -5.21732e-06)
(1.26725 0.00978901 1.09526e-05)
(1.26326 0.0289014 -1.06219e-05)
(1.23999 0.0463368 1.62249e-05)
(1.23428 0.0581167 -1.68486e-05)
(1.19789 0.0732747 9.95533e-06)
(1.00024 -0.0120744 1.12915e-06)
(1.00609 -0.0358666 -2.32739e-06)
(1.01775 -0.058436 -4.27121e-06)
(1.03507 -0.0787489 -3.18524e-06)
(1.05733 -0.0958694 -2.19302e-06)
(1.08357 -0.108969 -1.64807e-06)
(1.11265 -0.117356 -3.7276e-07)
(1.14324 -0.120614 1.44016e-06)
(1.17382 -0.118655 3.5958e-06)
(1.20293 -0.111787 5.57417e-06)
(1.22924 -0.100704 6.61926e-06)
(1.2518 -0.086352 6.30432e-06)
(1.27009 -0.069709 4.90041e-06)
(1.28395 -0.0515986 3.11867e-06)
(1.29342 -0.0326084 1.64955e-06)
(1.29858 -0.0131245 9.09015e-07)
(1.29944 0.00655195 8.80195e-07)
(1.29595 0.0260946 1.58614e-06)
(1.28806 0.0450868 2.44654e-06)
(1.27578 0.0629764 3.06481e-06)
(1.25925 0.0790808 3.32473e-06)
(1.23885 0.0926365 3.17641e-06)
(1.21521 0.102871 2.6767e-06)
(1.18923 0.109094 1.88101e-06)
(1.162 0.110777 1.05118e-06)
(1.1348 0.10761 7.63449e-08)
(1.1089 0.0995337 -5.77206e-07)
(1.08563 0.0867062 -1.03138e-06)
(1.06617 0.069529 -1.18603e-06)
(1.05164 0.0485513 -1.21148e-06)
(1.04294 0.0245796 -1.00186e-06)
(1.04086 -0.00151637 -1.3312e-06)
(1.04585 -0.0285126 -1.3976e-06)
(1.05819 -0.0552078 -1.37324e-06)
(1.07761 -0.0798659 -1.04971e-06)
(1.10339 -0.101155 -6.77732e-07)
(1.13433 -0.117093 -4.27178e-07)
(1.16847 -0.126836 6.10401e-07)
(1.20421 -0.128766 3.02587e-07)
(1.23825 -0.123257 2.6062e-06)
(1.26991 -0.109678 5.1624e-07)
(1.2942 -0.0900602 4.85385e-06)
(1.3136 -0.0649841 -1.49856e-06)
(1.32057 -0.0377508 6.35457e-06)
(1.32433 -0.0094638 -6.05515e-06)
(1.31188 0.0169821 1.21827e-05)
(1.30444 0.0404748 -1.16262e-05)
(1.27532 0.0609613 1.80335e-05)
(1.26651 0.0747901 -1.89533e-05)
(1.22297 0.0910472 1.09645e-05)
(1.00029 -0.0146774 1.29053e-06)
(1.00709 -0.0435828 -2.45353e-06)
(1.02068 -0.0710893 -5.0776e-06)
(1.04094 -0.0958803 -3.75782e-06)
(1.06704 -0.116842 -2.88139e-06)
(1.09792 -0.132898 -2.25467e-06)
(1.13225 -0.143119 -3.64306e-07)
(1.16837 -0.146942 2.27342e-06)
(1.20444 -0.144211 5.55506e-06)
(1.23856 -0.135339 8.47272e-06)
(1.26906 -0.121311 9.73907e-06)
(1.29483 -0.103462 8.83795e-06)
(1.3154 -0.0831215 6.40684e-06)
(1.33077 -0.0613265 3.41021e-06)
(1.34121 -0.0387166 1.16825e-06)
(1.3469 -0.015633 3.58426e-07)
(1.34789 0.00768531 5.64852e-07)
(1.34407 0.0309489 1.71413e-06)
(1.33529 0.0537152 3.02729e-06)
(1.32146 0.0753311 4.00135e-06)
(1.30264 0.0949458 4.49668e-06)
(1.27921 0.111579 4.40416e-06)
(1.25188 0.124227 3.75644e-06)
(1.2217 0.131985 2.6633e-06)
(1.18999 0.134176 1.5197e-06)
(1.15829 0.130405 2.55061e-07)
(1.12813 0.120606 -5.98238e-07)
(1.10108 0.104985 -1.13856e-06)
(1.07851 0.0840269 -1.2626e-06)
(1.06177 0.0584021 -1.2288e-06)
(1.05188 0.029054 -9.93282e-07)
(1.0498 -0.00298383 -1.35928e-06)
(1.05608 -0.0362328 -1.39332e-06)
(1.07107 -0.0691947 -1.39041e-06)
(1.09441 -0.0996705 -1.24705e-06)
(1.12513 -0.125922 -1.12472e-06)
(1.16173 -0.14544 -1.33712e-06)
(1.20182 -0.157142 -6.49143e-07)
(1.24367 -0.159034 -1.46176e-06)
(1.2835 -0.151531 9.50924e-07)
(1.32063 -0.133846 -1.25373e-06)
(1.34918 -0.10843 4.04801e-06)
(1.37168 -0.0761448 -1.90679e-06)
(1.37922 -0.0412419 7.33236e-06)
(1.38209 -0.00536359 -4.85521e-06)
(1.36561 0.0274944 1.36672e-05)
(1.35393 0.0561716 -1.31077e-05)
(1.31748 0.079854 1.99548e-05)
(1.30467 0.0958181 -2.16722e-05)
(1.25205 0.112335 1.21344e-05)
(1.00034 -0.017726 1.47932e-06)
(1.00832 -0.0525878 -2.36966e-06)
(1.02425 -0.085935 -6.14196e-06)
(1.04813 -0.116024 -4.32891e-06)
(1.07898 -0.141618 -4.02906e-06)
(1.11571 -0.161265 -3.23871e-06)
(1.1567 -0.173711 -5.82235e-07)
(1.19995 -0.178179 3.34591e-06)
(1.24308 -0.17438 8.76163e-06)
(1.28359 -0.162871 1.3371e-05)
(1.31931 -0.145061 1.47432e-05)
(1.34892 -0.122865 1.23812e-05)
(1.37206 -0.098107 7.83541e-06)
(1.38906 -0.0720931 2.57247e-06)
(1.40051 -0.0454631 -3.52386e-07)
(1.40676 -0.0184309 -8.86151e-07)
(1.40788 0.00890204 -1.33171e-07)
(1.40368 0.0363447 1.72105e-06)
(1.39386 0.0634447 3.60127e-06)
(1.37815 0.0894297 5.00698e-06)
(1.3565 0.113232 5.85503e-06)
(1.32928 0.133582 5.92927e-06)
(1.29728 0.149161 5.17087e-06)
(1.26178 0.15879 3.7504e-06)
(1.2244 0.161601 2.21076e-06)
(1.18702 0.157108 6.94873e-07)
(1.15151 0.145253 -3.76981e-07)
(1.11973 0.126308 -9.56152e-07)
(1.0933 0.100879 -9.99716e-07)
(1.07376 0.0697614 -9.59445e-07)
(1.0623 0.0340873 -6.51507e-07)
(1.06003 -0.00497211 -9.42517e-07)
(1.0676 -0.0456234 -9.49992e-07)
(1.08532 -0.0859634 -1.09569e-06)
(1.1126 -0.123193 -1.52511e-06)
(1.14796 -0.155071 -2.13922e-06)
(1.18957 -0.17855 -3.42365e-06)
(1.23468 -0.192386 -3.60435e-06)
(1.28183 -0.194271 -5.44081e-06)
(1.3271 -0.184655 -3.26933e-06)
(1.37021 -0.16244 -5.69682e-06)
(1.40437 -0.130364 6.03603e-07)
(1.43211 -0.0894152 -4.31704e-06)
(1.44245 -0.0449587 7.29274e-06)
(1.44624 0.000657375 -6.34731e-06)
(1.42644 0.0415747 1.38663e-05)
(1.41075 0.0767273 -1.56516e-05)
(1.36596 0.103962 2.16628e-05)
(1.3485 0.122288 -2.51574e-05)
(1.28485 0.138005 1.33626e-05)
(1.00041 -0.0213174 1.71564e-06)
(1.0098 -0.0631351 -1.89819e-06)
(1.02855 -0.103471 -7.54226e-06)
(1.05685 -0.139865 -4.6713e-06)
(1.09355 -0.171168 -5.95094e-06)
(1.13765 -0.19526 -4.66367e-06)
(1.18716 -0.210493 -1.40192e-06)
(1.2396 -0.215735 4.24871e-06)
(1.29189 -0.210417 1.32487e-05)
(1.3406 -0.195349 2.09505e-05)
(1.38282 -0.172599 2.27011e-05)
(1.41693 -0.144925 1.7888e-05)
(1.44282 -0.11484 8.31737e-06)
(1.46139 -0.0839747 -6.75115e-07)
(1.47373 -0.0528768 -4.19366e-06)
(1.48047 -0.0215216 -3.84825e-06)
(1.48168 0.0102282 -2.05072e-06)
(1.47703 0.0423837 1.05002e-06)
(1.46596 0.0745003 3.81092e-06)
(1.44798 0.105668 5.86509e-06)
(1.42285 0.134541 7.20942e-06)
(1.39086 0.159449 7.51615e-06)
(1.35295 0.178639 6.69284e-06)
(1.31069 0.190567 5.01921e-06)
(1.26613 0.194125 3.13363e-06)
(1.22159 0.188737 1.49771e-06)
(1.17936 0.174385 3.73304e-07)
(1.14166 0.151455 -7.71485e-08)
(1.11037 0.120706 5.77779e-08)
(1.08723 0.0831089 2.91315e-07)
(1.07355 0.0399878 1.11569e-07)
(1.0705 -0.00728663 2.39188e-07)
(1.07884 -0.0565333 6.59457e-07)
(1.09849 -0.105261 4.95071e-07)
(1.12829 -0.149881 -6.78847e-07)
(1.16583 -0.187626 -2.20215e-06)
(1.20919 -0.215103 -4.90736e-06)
(1.25565 -0.231228 -6.30341e-06)
(1.30498 -0.233547 -9.4406e-06)
(1.35373 -0.222541 -8.03829e-06)
(1.40273 -0.19642 -1.12906e-05)
(1.44423 -0.157867 -4.28572e-06)
(1.48082 -0.107412 -9.2782e-06)
(1.49852 -0.051555 6.232e-06)
(1.50805 0.00639173 -1.0095e-05)
(1.48851 0.0580344 1.23752e-05)
(1.47121 0.101938 -1.97717e-05)
(1.41855 0.133695 2.26368e-05)
(1.39664 0.155044 -2.96283e-05)
(1.32049 0.168861 1.44437e-05)
(1.0005 -0.0255584 2.07215e-06)
(1.01153 -0.0754985 -8.4446e-07)
(1.03367 -0.124285 -9.29869e-06)
(1.06729 -0.168198 -4.4359e-06)
(1.11114 -0.206717 -9.12538e-06)
(1.1646 -0.236415 -6.23421e-06)
(1.225 -0.255296 -2.90249e-06)
(1.28947 -0.261546 5.34348e-06)
(1.35374 -0.253997 1.90434e-05)
(1.41302 -0.233936 3.02049e-05)
(1.46321 -0.204531 3.24618e-05)
(1.50233 -0.169851 2.45024e-05)
(1.53076 -0.133346 7.18704e-06)
(1.55039 -0.0969492 -7.0766e-06)
(1.56311 -0.0609249 -1.19124e-05)
(1.56991 -0.0248733 -1.03535e-05)
(1.57095 0.0117224 -6.77801e-06)
(1.56567 0.0492059 -2.48034e-06)
(1.55315 0.0871689 1.43897e-06)
(1.5325 0.12454 5.06626e-06)
(1.50318 0.159611 7.75593e-06)
(1.46535 0.190171 8.66568e-06)
(1.42007 0.213862 7.90539e-06)
(1.36932 0.22864 6.10983e-06)
(1.31571 0.233095 4.15347e-06)
(1.26218 0.226576 2.66213e-06)
(1.21155 0.209162 1.95034e-06)
(1.16642 0.181438 1.94795e-06)
(1.12896 0.14438 2.49646e-06)
(1.10103 0.099212 2.79948e-06)
(1.08401 0.0474708 2.58241e-06)
(1.07896 -0.00916183 3.73058e-06)
(1.08646 -0.0679656 4.92295e-06)
(1.10538 -0.125467 5.36503e-06)
(1.13334 -0.177134 4.3643e-06)
(1.16686 -0.219967 3.20968e-06)
(1.20473 -0.250886 3.9564e-08)
(1.24545 -0.269607 -1.65497e-06)
(1.29139 -0.273778 -5.63183e-06)
(1.34027 -0.263733 -5.21653e-06)
(1.39467 -0.236324 -9.79954e-06)
(1.44569 -0.193502 -3.51985e-06)
(1.49614 -0.134405 -1.06141e-05)
(1.5281 -0.0662709 3.57792e-06)
(1.55164 0.00686367 -1.57624e-05)
(1.53987 0.0729671 8.97096e-06)
(1.52714 0.129477 -2.58786e-05)
(1.47001 0.168041 2.24157e-05)
(1.44573 0.19409 -3.51739e-05)
(1.35701 0.205343 1.50701e-05)
(1.00063 -0.0305505 2.74948e-06)
(1.01347 -0.0899726 9.58142e-07)
(1.03969 -0.14905 -1.11167e-05)
(1.07956 -0.201908 -3.54483e-06)
(1.13215 -0.24982 -1.45642e-05)
(1.19749 -0.286653 -7.70305e-06)
(1.27182 -0.310552 -5.47746e-06)
(1.35218 -0.318242 9.11705e-06)
(1.43236 -0.307467 2.94181e-05)
(1.50527 -0.280184 4.04792e-05)
(1.56474 -0.241334 3.86082e-05)
(1.60842 -0.197322 2.29179e-05)
(1.63789 -0.153032 -1.71113e-06)
(1.65681 -0.11049 -1.94648e-05)
(1.66834 -0.0692442 -2.42538e-05)
(1.67402 -0.0283328 -2.11972e-05)
(1.67417 0.0133771 -1.54716e-05)
(1.66794 0.0567651 -1.18599e-05)
(1.65384 0.101533 -8.59785e-06)
(1.63042 0.146415 -2.72738e-06)
(1.59659 0.189181 3.25767e-06)
(1.55213 0.226843 6.56675e-06)
(1.49815 0.256215 7.15909e-06)
(1.43714 0.274578 5.98657e-06)
(1.37246 0.280141 4.50864e-06)
(1.30787 0.272199 3.81297e-06)
(1.24687 0.251046 4.2464e-06)
(1.19251 0.21757 5.32633e-06)
(1.14721 0.173123 6.48356e-06)
(1.11283 0.119267 6.5906e-06)
(1.0906 0.0578966 4.89985e-06)
(1.08121 -0.00881797 5.51333e-06)
(1.0843 -0.0772622 9.67396e-06)
(1.09651 -0.142333 1.28056e-05)
(1.11375 -0.198779 1.35867e-05)
(1.13243 -0.244476 1.4664e-05)
(1.15426 -0.278006 1.31095e-05)
(1.18079 -0.300598 1.26156e-05)
(1.21808 -0.309962 8.62286e-06)
(1.26479 -0.305597 8.87321e-06)
(1.32504 -0.282013 2.69392e-06)
(1.3881 -0.2396 7.09101e-06)
(1.45724 -0.175099 -3.26862e-06)
(1.51041 -0.095742 9.83172e-06)
(1.55763 -0.00541918 -1.28942e-05)
(1.56404 0.0791465 8.77936e-06)
(1.56587 0.153796 -3.17915e-05)
(1.51145 0.203467 2.12391e-05)
(1.48973 0.23768 -4.15023e-05)
(1.3909 0.247031 1.48551e-05)
(1.00078 -0.0363581 4.19328e-06)
(1.01558 -0.106895 3.46684e-06)
(1.04667 -0.178457 -1.16998e-05)
(1.09349 -0.241977 -3.10867e-06)
(1.15695 -0.302483 -2.40036e-05)
(1.23709 -0.348286 -1.14627e-05)
(1.329 -0.379377 -1.35984e-05)
(1.43066 -0.389018 1.43336e-05)
(1.53232 -0.373877 4.88468e-05)
(1.62246 -0.336197 5.8051e-05)
(1.69063 -0.283354 3.90823e-05)
(1.73498 -0.226179 -1.09771e-06)
(1.76032 -0.172115 -3.33188e-05)
(1.77369 -0.12285 -4.53733e-05)
(1.78013 -0.0764688 -4.01967e-05)
(1.78192 -0.0311102 -3.10949e-05)
(1.77971 0.0153588 -2.22507e-05)
(1.77227 0.0645998 -2.25286e-05)
(1.75726 0.116791 -2.45442e-05)
(1.73229 0.170599 -2.0839e-05)
(1.69516 0.22303 -1.311e-05)
(1.64483 0.269879 -5.95201e-06)
(1.58216 0.30669 -6.74312e-07)
(1.51004 0.32977 1.86859e-06)
(1.43282 0.336854 2.81508e-06)
(1.35536 0.327265 4.01868e-06)
(1.28206 0.301672 6.23516e-06)
(1.21655 0.261465 8.92317e-06)
(1.16143 0.208562 1.09752e-05)
(1.11833 0.145082 1.09017e-05)
(1.08821 0.0733015 6.06986e-06)
(1.07051 -0.00337763 -2.5632e-07)
(1.06232 -0.079176 7.66596e-06)
(1.05707 -0.147793 1.53493e-05)
(1.05021 -0.204636 1.7958e-05)
(1.04171 -0.250803 2.0081e-05)
(1.03948 -0.28805 1.88256e-05)
(1.04912 -0.318856 1.95747e-05)
(1.07881 -0.33964 1.71678e-05)
(1.1259 -0.347754 1.96708e-05)
(1.19446 -0.334398 1.4457e-05)
(1.27145 -0.298162 1.96254e-05)
(1.36127 -0.232765 7.67625e-06)
(1.43839 -0.145315 1.84172e-05)
(1.51459 -0.0378607 -8.1318e-06)
(1.54724 0.0680526 1.46272e-05)
(1.57408 0.166849 -3.34393e-05)
(1.53194 0.233667 2.09797e-05)
(1.52019 0.281628 -4.7292e-05)
(1.41705 0.292118 1.35606e-05)
(1.0008 -0.0429706 7.19146e-06)
(1.01792 -0.126678 6.29287e-06)
(1.05432 -0.212984 -7.69917e-06)
(1.10858 -0.289668 -5.68375e-06)
(1.18586 -0.367234 -3.7256e-05)
(1.28321 -0.424 -2.58182e-05)
(1.39758 -0.466056 -3.9053e-05)
(1.52829 -0.478132 6.70322e-06)
(1.65801 -0.456229 6.46614e-05)
(1.7661 -0.402792 8.87666e-05)
(1.83498 -0.329153 5.46757e-05)
(1.86751 -0.253487 -2.31324e-05)
(1.87575 -0.186827 -7.46347e-05)
(1.87272 -0.130106 -7.57973e-05)
(1.86617 -0.0792625 -5.01954e-05)
(1.8589 -0.0310094 -3.28589e-05)
(1.85202 0.0184005 -2.13627e-05)
(1.84394 0.0718316 -2.12771e-05)
(1.8312 0.130739 -2.64952e-05)
(1.80965 0.194148 -3.05862e-05)
(1.77498 0.258267 -3.18682e-05)
(1.72421 0.317209 -2.9427e-05)
(1.65702 0.364434 -2.29331e-05)
(1.5763 0.394479 -1.45645e-05)
(1.48745 0.404206 -6.7509e-06)
(1.39686 0.393077 9.5709e-08)
(1.31026 0.3625 5.92983e-06)
(1.23211 0.314743 1.06563e-05)
(1.16511 0.252637 1.36459e-05)
(1.11047 0.179087 1.37987e-05)
(1.06882 0.0970277 8.77673e-06)
(1.03675 0.0123019 -1.14004e-06)
(1.00592 -0.0651076 -4.0862e-06)
(0.968363 -0.130558 5.13691e-06)
(0.925519 -0.184271 6.71852e-06)
(0.886701 -0.233247 5.6582e-06)
(0.866502 -0.281535 1.93233e-06)
(0.87051 -0.329482 3.39437e-06)
(0.903199 -0.369337 2.76709e-06)
(0.95735 -0.395543 9.50893e-06)
(1.03591 -0.396641 7.99239e-06)
(1.12483 -0.370325 1.92424e-05)
(1.23114 -0.307504 1.00793e-05)
(1.32754 -0.215658 2.41179e-05)
(1.4298 -0.0932267 -2.54364e-06)
(1.48909 0.034361 2.37302e-05)
(1.54576 0.161536 -3.03618e-05)
(1.52351 0.251506 2.27297e-05)
(1.52894 0.31988 -5.09606e-05)
(1.42972 0.337328 1.11888e-05)
(1.00045 -0.0503049 1.26458e-05)
(1.02084 -0.14966 1.00678e-05)
(1.06131 -0.252513 6.40104e-06)
(1.12444 -0.346924 -1.18216e-05)
(1.21766 -0.44647 -4.47235e-05)
(1.33315 -0.517467 -6.07002e-05)
(1.47873 -0.578056 -8.67895e-05)
(1.64877 -0.59366 -1.90135e-05)
(1.80715 -0.554219 4.41609e-05)
(1.91701 -0.471325 9.69786e-05)
(1.95862 -0.366542 0.000123805)
(1.95199 -0.267734 4.25191e-05)
(1.91816 -0.186745 -4.88116e-05)
(1.87979 -0.122958 -6.75621e-05)
(1.84811 -0.0703513 -3.47659e-05)
(1.82491 -0.0235875 -1.80278e-05)
(1.81197 0.0233457 -1.29623e-05)
(1.8071 0.0762708 -8.94073e-06)
(1.80533 0.138339 -4.50307e-06)
(1.79964 0.209692 -6.19868e-06)
(1.78217 0.286215 -1.4871e-05)
(1.74626 0.360288 -2.65511e-05)
(1.68849 0.422484 -3.5682e-05)
(1.61012 0.464162 -3.74422e-05)
(1.517 0.480058 -3.0075e-05)
(1.41739 0.46929 -1.73904e-05)
(1.31929 0.434234 -5.1193e-06)
(1.22864 0.378782 4.22114e-06)
(1.14828 0.307423 9.14181e-06)
(1.07938 0.224093 9.58216e-06)
(1.02117 0.13408 5.99502e-06)
(0.964976 0.0475652 3.61234e-06)
(0.897305 -0.0244735 -1.61754e-05)
(0.817685 -0.0821613 -1.38048e-05)
(0.743825 -0.137975 -1.62156e-05)
(0.694278 -0.202716 -1.99333e-05)
(0.68062 -0.2752 -2.41842e-05)
(0.699107 -0.348181 -2.10626e-05)
(0.745772 -0.409499 -2.0954e-05)
(0.809629 -0.453287 -1.15563e-05)
(0.894182 -0.46828 -1.10627e-05)
(0.987381 -0.452474 5.93584e-06)
(1.1003 -0.394172 2.17936e-06)
(1.20571 -0.300982 2.562e-05)
(1.32411 -0.166937 3.49527e-06)
(1.40259 -0.0204862 3.37746e-05)
(1.48579 0.135666 -2.4464e-05)
(1.4855 0.252487 2.56677e-05)
(1.51165 0.346795 -5.18229e-05)
(1.42448 0.378783 7.89391e-06)
(0.999676 -0.058256 2.03705e-05)
(1.0242 -0.175421 2.00101e-05)
(1.06524 -0.296293 3.4872e-05)
(1.14036 -0.415676 -1.34694e-05)
(1.24568 -0.540553 -2.20236e-05)
(1.38234 -0.635969 -0.000112724)
(1.57297 -0.727891 -0.000124986)
(1.78692 -0.74136 -5.07604e-05)
(1.94582 -0.655686 9.38922e-06)
(1.99335 -0.510406 3.35588e-05)
(1.94153 -0.35704 0.00016128)
(1.85001 -0.236017 0.00013756)
(1.7349 -0.147046 3.76037e-05)
(1.64142 -0.0841557 -1.80277e-05)
(1.57822 -0.0373874 -6.73358e-07)
(1.54154 -0.0021855 -1.90738e-06)
(1.53289 0.0321327 -5.42137e-06)
(1.54775 0.0763556 1.04573e-05)
(1.57693 0.134516 3.32043e-05)
(1.60955 0.208728 4.43168e-05)
(1.63337 0.295378 3.96498e-05)
(1.63753 0.385566 2.28294e-05)
(1.61429 0.466753 -1.5862e-06)
(1.56135 0.52607 -2.47667e-05)
(1.4829 0.55456 -3.83521e-05)
(1.38802 0.54947 -3.78287e-05)
(1.28724 0.513471 -2.81989e-05)
(1.18829 0.452743 -1.73053e-05)
(1.09569 0.373919 -1.08188e-05)
(1.01189 0.282903 -9.92965e-06)
(0.930523 0.190943 -1.17266e-05)
(0.836309 0.113036 -1.07312e-05)
(0.726209 0.0514291 -7.73542e-06)
(0.62064 -0.00931802 -1.97142e-05)
(0.548423 -0.087748 -3.17894e-05)
(0.522618 -0.185462 -3.46106e-05)
(0.538824 -0.28871 -3.66343e-05)
(0.582277 -0.384316 -3.17473e-05)
(0.643844 -0.460858 -3.22885e-05)
(0.712908 -0.516134 -2.27384e-05)
(0.795102 -0.541426 -2.39056e-05)
(0.882525 -0.535441 -4.59209e-06)
(0.990762 -0.4834 -6.29665e-06)
(1.09433 -0.392077 2.31098e-05)
(1.21725 -0.250586 2.60041e-06)
(1.30443 -0.0897839 3.8862e-05)
(1.40538 0.092478 -1.86063e-05)
(1.42385 0.236589 2.84117e-05)
(1.4693 0.359391 -5.0011e-05)
(1.39974 0.413343 4.08484e-06)
(0.998962 -0.0665874 2.82569e-05)
(1.02614 -0.201925 4.16022e-05)
(1.06434 -0.343242 6.90019e-05)
(1.15098 -0.493869 9.61143e-06)
(1.25654 -0.647486 4.60329e-05)
(1.4279 -0.790749 -0.000189902)
(1.66708 -0.920666 -6.8792e-05)
(1.88772 -0.888794 -0.000164768)
(1.95258 -0.793353 5.00326e-05)
(1.86691 -0.535589 -0.000149866)
(1.64776 -0.293731 -0.000108131)
(1.39887 -0.1378 -3.80168e-05)
(1.01344 -0.019593 9.1737e-06)
(0.940319 0.00360114 -1.7799e-05)
(0.916313 0.0156961 1.14882e-06)
(0.927549 0.0156851 -2.58386e-05)
(0.978993 0.0214051 -7.91907e-06)
(1.05627 0.0456831 1.98722e-05)
(1.14476 0.0962433 5.49108e-05)
(1.23471 0.172357 8.12185e-05)
(1.31391 0.269658 8.76249e-05)
(1.37144 0.37807 7.68165e-05)
(1.39808 0.48227 4.97778e-05)
(1.38854 0.565182 1.44754e-05)
(1.34398 0.613424 -1.9477e-05)
(1.27201 0.621203 -4.02869e-05)
(1.183 0.591064 -4.65204e-05)
(1.08608 0.530778 -4.39078e-05)
(0.989129 0.448435 -4.19315e-05)
(0.891668 0.356298 -4.32575e-05)
(0.779437 0.27414 -4.40081e-05)
(0.646182 0.210402 -3.68451e-05)
(0.516246 0.146671 -2.32131e-05)
(0.426744 0.0566499 -1.44941e-05)
(0.394905 -0.0637814 -2.15117e-05)
(0.412765 -0.198535 -2.20874e-05)
(0.463541 -0.32635 -2.36738e-05)
(0.529655 -0.434881 -2.00687e-05)
(0.601492 -0.517254 -2.43936e-05)
(0.670348 -0.576398 -1.84731e-05)
(0.743147 -0.607443 -2.52271e-05)
(0.816538 -0.610059 -7.74896e-06)
(0.91033 -0.56629 -1.26698e-05)
(1.00288 -0.480275 2.12151e-05)
(1.12047 -0.335727 3.82481e-06)
(1.20716 -0.165514 4.05761e-05)
(1.3157 0.0380647 -1.36617e-05)
(1.34706 0.207346 3.05636e-05)
(1.40671 0.35794 -4.55777e-05)
(1.35679 0.439458 5.33921e-07)