/*--------------------------------*- C++ -*----------------------------------*\
  =========                 |
  \\      /  F ield         | OpenFOAM: The Open Source CFD Toolbox
   \\    /   O peration     | Website:  https://openfoam.org
    \\  /    A nd           | Version:  8
     \\/     M anipulation  |
\*---------------------------------------------------------------------------*/
FoamFile
{
    version     2.0;
    format      ascii;
    class       volScalarField;
    location    "0.04";
    object      p;
}
// * * * * * * * * * * * * * * * * * * * * * * * * * * * * * * * * * * * * * //

dimensions      [0 2 -2 0 0 0 0];

internalField   nonuniform List<scalar> 
400
(
-7.90971e-08
-0.0039136
-0.00814371
-0.0106521
-0.0102747
-0.00637082
0.00107816
0.0116784
0.0247511
0.0394201
0.0546858
0.0694832
0.0827346
0.093426
0.100716
0.104076
0.103468
0.0995411
0.0938343
0.0890063
0.0057461
0.00168997
-0.00153761
-0.00295745
-0.00201433
0.00169915
0.00822335
0.0172782
0.0283397
0.0407059
0.0535616
0.0660339
0.077244
0.0863768
0.0927717
0.0960317
0.0961521
0.0936048
0.0891771
0.0842117
0.013139
0.00689837
0.00293044
0.00146555
0.00237676
0.00584417
0.0118379
0.0200801
0.0301036
0.0412934
0.0529332
0.0642526
0.0744741
0.0828701
0.0888356
0.0919773
0.0922277
0.0898577
0.0849771
0.0780513
0.0195827
0.010446
0.00498454
0.00287938
0.00345931
0.00672009
0.0125288
0.0205497
0.0303073
0.0412107
0.0525799
0.063681
0.0737631
0.0821034
0.0880658
0.0911804
0.0912671
0.0884126
0.0821871
0.0725389
0.0235514
0.0114487
0.00432037
0.00145162
0.00171027
0.00493395
0.0108829
0.0191432
0.0292031
0.0404654
0.0522528
0.0638282
0.0744222
0.0832674
0.0896456
0.0929649
0.092906
0.0893823
0.0815006
0.0688661
0.024171
0.00899874
0.00014316
-0.00344273
-0.00334143
0.000130932
0.00662353
0.0156318
0.0265905
0.0388755
0.0517883
0.0645597
0.0763676
0.0863603
0.0936935
0.0976096
0.0976154
0.0934388
0.0837367
0.0678495
0.0206192
0.00218137
-0.00841634
-0.0125621
-0.0123324
-0.00821401
-0.000681669
0.00965631
0.0221676
0.0361881
0.0509841
0.0657384
0.0795538
0.0914628
0.100453
0.105547
0.106025
0.101381
0.0897559
0.0702235
0.01195
-0.0100504
-0.0223599
-0.0267864
-0.0260032
-0.0207113
-0.0115364
0.000792886
0.0155691
0.0320852
0.0495732
0.0671684
0.0838923
0.098641
0.110192
0.117286
0.118893
0.114176
0.100598
0.0768836
-0.00307066
-0.0290224
-0.0429374
-0.0471954
-0.0452462
-0.038085
-0.0265317
-0.0114549
0.00636311
0.0261837
0.0472246
0.0685962
0.0892535
0.107953
0.123226
0.133457
0.13719
0.13309
0.117669
0.0891139
-0.0261342
-0.0564842
-0.0717343
-0.0750977
-0.0710919
-0.0611323
-0.0462925
-0.0275991
-0.00589761
0.0180741
0.0435644
0.0697097
0.0954452
0.119412
0.139884
0.154804
0.162141
0.159819
0.142947
0.108836
-0.0596038
-0.0947868
-0.110758
-0.11203
-0.104645
-0.0906218
-0.071357
-0.0480456
-0.0215624
0.00741452
0.0382415
0.0701712
0.10221
0.132959
0.160458
0.182154
0.195262
0.19662
0.179245
0.13894
-0.106862
-0.147143
-0.162541
-0.159719
-0.146954
-0.127112
-0.101975
-0.0728896
-0.0406909
-0.00589894
0.0310694
0.0697199
0.109281
0.148461
0.185177
0.216386
0.238388
0.24649
0.230578
0.183796
-0.172984
-0.218046
-0.230238
-0.219952
-0.198754
-0.170638
-0.137786
-0.101607
-0.0627671
-0.0214744
0.022249
0.068352
0.116506
0.165774
0.214192
0.258383
0.293676
0.31336
0.302717
0.250184
-0.266181
-0.313971
-0.317645
-0.294227
-0.25998
-0.220208
-0.177351
-0.132653
-0.0863616
-0.0381439
0.0125974
0.066495
0.123951
0.18475
0.247479
0.308853
0.363464
0.402243
0.404066
0.349144
-0.400884
-0.444433
-0.428852
-0.382898
-0.328857
-0.27303
-0.217577
-0.163058
-0.108874
-0.0538114
0.00362265
0.0650153
0.131831
0.205045
0.284468
0.367768
0.449647
0.519025
0.54687
0.499586
-0.603324
-0.623058
-0.567209
-0.483787
-0.400718
-0.323703
-0.253285
-0.188303
-0.126603
-0.0656364
-0.00271497
0.064954
0.140211
0.225734
0.323469
0.433508
0.552584
0.66951
0.748071
0.733904
-0.921752
-0.867727
-0.733467
-0.591083
-0.467549
-0.364294
-0.277701
-0.203047
-0.135561
-0.0708348
-0.00473392
0.0668889
0.148456
0.244829
0.36119
0.502241
0.67
0.857495
1.02901
1.10726
-1.46639
-1.19948
-0.915927
-0.688391
-0.514348
-0.382941
-0.282423
-0.201826
-0.132525
-0.0679021
-0.00239443
0.069355
0.153266
0.256614
0.388909
0.562218
0.788534
1.07456
1.41628
1.73957
-2.53347
-1.62671
-1.04328
-0.711667
-0.496694
-0.351441
-0.25071
-0.175542
-0.113484
-0.0564606
0.00158732
0.0662475
0.143943
0.243424
0.378177
0.56922
0.845109
1.25285
1.92554
2.93512
-4.36268
-2.04299
-0.975281
-0.567715
-0.363354
-0.244411
-0.171101
-0.119969
-0.0780541
-0.0383845
0.00359287
0.0519298
0.111459
0.189588
0.299769
0.467684
0.741127
1.24548
2.42759
4.86216
)
;

boundaryField
{
    movingWall
    {
        type            zeroGradient;
    }
    fixedWalls
    {
        type            zeroGradient;
    }
    frontAndBack
    {
        type            empty;
    }
}


// ************************************************************************* //
