/*--------------------------------*- C++ -*----------------------------------*\
  =========                 |
  \\      /  F ield         | OpenFOAM: The Open Source CFD Toolbox
   \\    /   O peration     | Website:  https://openfoam.org
    \\  /    A nd           | Version:  8
     \\/     M anipulation  |
\*---------------------------------------------------------------------------*/
FoamFile
{
    version     2.0;
    format      ascii;
    class       volVectorField;
    location    "0.04";
    object      U;
}
// * * * * * * * * * * * * * * * * * * * * * * * * * * * * * * * * * * * * * //

dimensions      [0 1 -1 0 0 0 0];

internalField   nonuniform List<vector> 
400
(
(0.000223948 -0.000170378 0)
(4.80879e-05 0.00016686 0)
(-0.00113463 0.000530311 0)
(-0.00313646 0.00077731 0)
(-0.00556673 0.000888012 0)
(-0.00811258 0.000882311 0)
(-0.0104927 0.00078352 0)
(-0.0124831 0.000613895 0)
(-0.0139161 0.000394141 0)
(-0.0146782 0.000143145 0)
(-0.0147064 -0.000121415 0)
(-0.0139894 -0.000381064 0)
(-0.0125718 -0.000614815 0)
(-0.0105597 -0.000798463 0)
(-0.00812744 -0.000904942 0)
(-0.00551968 -0.000906195 0)
(-0.00304577 -0.000777548 0)
(-0.00105754 -0.000505367 0)
(9.16498e-05 -0.000113314 0)
(0.000209027 0.000204233 0)
(-5.15698e-05 -9.27156e-05 0)
(-0.00139506 0.00152815 0)
(-0.00489842 0.00315304 0)
(-0.00996693 0.00426252 0)
(-0.0158956 0.00476281 0)
(-0.0220135 0.00470225 0)
(-0.0277038 0.00416938 0)
(-0.0324539 0.00326639 0)
(-0.0358719 0.00209558 0)
(-0.0376884 0.000756453 0)
(-0.0377556 -0.000652616 0)
(-0.0360525 -0.00202894 0)
(-0.0326907 -0.00326083 0)
(-0.0279241 -0.0042263 0)
(-0.0221558 -0.00479723 0)
(-0.0159344 -0.00485177 0)
(-0.00992339 -0.00429846 0)
(-0.00483548 -0.00311452 0)
(-0.00137695 -0.00143427 0)
(-7.12365e-05 0.000120533 0)
(-0.000444727 0.000993396 0)
(-0.00313692 0.00498321 0)
(-0.00889456 0.00869233 0)
(-0.016687 0.0111886 0)
(-0.0255099 0.0122782 0)
(-0.0344635 0.0120314 0)
(-0.0427188 0.0106328 0)
(-0.0495762 0.0083167 0)
(-0.0544983 0.00533059 0)
(-0.0571147 0.00192258 0)
(-0.0572228 -0.00165754 0)
(-0.0547932 -0.0051494 0)
(-0.0499784 -0.00827431 0)
(-0.0431244 -0.0107351 0)
(-0.0347782 -0.0122292 0)
(-0.0256806 -0.0124809 0)
(-0.0167217 -0.0112998 0)
(-0.00885376 -0.00866541 0)
(-0.00309312 -0.0048725 0)
(-0.000438654 -0.000936555 0)
(-0.000778665 0.00298753 0)
(-0.00476546 0.010392 0)
(-0.0127547 0.0167273 0)
(-0.0231629 0.0208652 0)
(-0.0346614 0.0225578 0)
(-0.0461509 0.0219295 0)
(-0.0566389 0.0192949 0)
(-0.0652975 0.0150556 0)
(-0.0714945 0.00964107 0)
(-0.0747957 0.00348557 0)
(-0.0749616 -0.00297185 0)
(-0.0719522 -0.00927439 0)
(-0.0659377 -0.0149355 0)
(-0.0573143 -0.0194392 0)
(-0.0467181 -0.0222628 0)
(-0.0350251 -0.0229328 0)
(-0.023306 -0.0211192 0)
(-0.0127407 -0.0167652 0)
(-0.00470129 -0.0102719 0)
(-0.000754795 -0.00290361 0)
(-0.00107514 0.00582912 0)
(-0.00631499 0.0176597 0)
(-0.0165423 0.027143 0)
(-0.0295731 0.033104 0)
(-0.0437137 0.0353336 0)
(-0.0576549 0.0340814 0)
(-0.0702586 0.0298418 0)
(-0.0805993 0.023222 0)
(-0.0879837 0.0148624 0)
(-0.091939 0.00540476 0)
(-0.0922012 -0.00450522 0)
(-0.0887142 -0.0141971 0)
(-0.0816442 -0.0229552 0)
(-0.0714029 -0.0300153 0)
(-0.058677 -0.0345947 0)
(-0.044446 -0.0359691 0)
(-0.0299517 -0.0336041 0)
(-0.0166259 -0.0273286 0)
(-0.00625614 -0.017556 0)
(-0.00103769 -0.00568757 0)
(-0.00136446 0.00947119 0)
(-0.00788608 0.0268073 0)
(-0.0204422 0.0400164 0)
(-0.0362004 0.047985 0)
(-0.0530563 0.050655 0)
(-0.0694738 0.0484961 0)
(-0.0841772 0.0422553 0)
(-0.0961677 0.0327942 0)
(-0.104719 0.0209921 0)
(-0.109342 0.00771109 0)
(-0.109758 -0.00619227 0)
(-0.105888 -0.0198314 0)
(-0.0978719 -0.0322524 0)
(-0.0861018 -0.0424194 0)
(-0.0712776 -0.0492445 0)
(-0.0544555 -0.0516822 0)
(-0.0370463 -0.048899 0)
(-0.020767 -0.0404997 0)
(-0.00789218 -0.0268022 0)
(-0.00132536 -0.00927836 0)
(-0.0016772 0.0139492 0)
(-0.00959022 0.0379471 0)
(-0.0246615 0.055499 0)
(-0.0433275 0.065647 0)
(-0.0630203 0.068616 0)
(-0.081964 0.0652174 0)
(-0.098761 0.0565441 0)
(-0.112371 0.0437715 0)
(-0.122069 0.0280454 0)
(-0.12738 0.0104523 0)
(-0.128021 -0.00795154 0)
(-0.123886 -0.0260776 0)
(-0.115059 -0.0427396 0)
(-0.101872 -0.0566141 0)
(-0.0849893 -0.0662592 0)
(-0.0655025 -0.0702191 0)
(-0.0449772 -0.067234 0)
(-0.0254449 -0.0565357 0)
(-0.00975552 -0.0382125 0)
(-0.00165567 -0.0137505 0)
(-0.00204187 0.0193624 0)
(-0.011534 0.0512856 0)
(-0.0293889 0.0738121 0)
(-0.0511798 0.0862576 0)
(-0.0738112 0.0893005 0)
(-0.0952687 0.0842524 0)
(-0.114069 0.0726692 0)
(-0.129184 0.0561092 0)
(-0.139944 0.03601 0)
(-0.145927 0.0136724 0)
(-0.14687 -0.00967751 0)
(-0.142632 -0.032786 0)
(-0.133214 -0.0542609 0)
(-0.118831 -0.0724907 0)
(-0.100039 -0.0856327 0)
(-0.0778951 -0.0917152 0)
(-0.0540722 -0.0888858 0)
(-0.0309268 -0.0757985 0)
(-0.0119918 -0.0521195 0)
(-0.00206619 -0.0192613 0)
(-0.0024876 0.0258682 0)
(-0.0138179 0.0671125 0)
(-0.0347789 0.0952198 0)
(-0.0598865 0.109961 0)
(-0.0854467 0.112709 0)
(-0.109235 0.105487 0)
(-0.129756 0.0904605 0)
(-0.146079 0.0696476 0)
(-0.157672 0.0447935 0)
(-0.164228 0.0173855 0)
(-0.165536 -0.0112372 0)
(-0.161425 -0.0397221 0)
(-0.151777 -0.066529 0)
(-0.136619 -0.0897836 0)
(-0.116297 -0.10721 0)
(-0.0917112 -0.116205 0)
(-0.0645451 -0.114113 0)
(-0.0374463 -0.0987213 0)
(-0.0147473 -0.0689785 0)
(-0.00259775 -0.02605 0)
(-0.00305029 0.0336827 0)
(-0.0165484 0.0857814 0)
(-0.0409499 0.119974 0)
(-0.0694475 0.136787 0)
(-0.0976858 0.138643 0)
(-0.123309 0.128564 0)
(-0.144937 0.109503 0)
(-0.161873 0.0840161 0)
(-0.173837 0.0541555 0)
(-0.180722 0.0215385 0)
(-0.182421 -0.0124725 0)
(-0.178744 -0.0465308 0)
(-0.169422 -0.0790482 0)
(-0.15421 -0.107957 0)
(-0.133106 -0.130549 0)
(-0.106677 -0.143479 0)
(-0.0764293 -0.143035 0)
(-0.045187 -0.125736 0)
(-0.0181791 -0.0893455 0)
(-0.00330167 -0.0344421 0)
(-0.00378473 0.0430934 0)
(-0.0198616 0.107691 0)
(-0.0479877 0.148233 0)
(-0.0796887 0.166516 0)
(-0.109928 0.166546 0)
(-0.136386 0.152723 0)
(-0.158014 0.128996 0)
(-0.174537 0.0985219 0)
(-0.18608 0.0636259 0)
(-0.192842 0.0259619 0)
(-0.194883 -0.0132132 0)
(-0.19202 -0.0527079 0)
(-0.183814 -0.0910385 0)
(-0.169666 -0.126074 0)
(-0.149062 -0.15474 0)
(-0.12199 -0.172882 0)
(-0.0894729 -0.175448 0)
(-0.0542548 -0.157155 0)
(-0.0224717 -0.113845 0)
(-0.00425294 -0.0448664 0)
(-0.00478856 0.0544971 0)
(-0.0239643 0.133262 0)
(-0.0559437 0.179936 0)
(-0.0901784 0.19848 0)
(-0.121051 0.195282 0)
(-0.146605 0.176605 0)
(-0.166446 0.147596 0)
(-0.180974 0.112032 0)
(-0.190888 0.0724222 0)
(-0.196803 0.0303166 0)
(-0.199018 -0.0133031 0)
(-0.197399 -0.0575904 0)
(-0.19134 -0.101374 0)
(-0.179834 -0.14267 0)
(-0.161699 -0.178205 0)
(-0.136042 -0.203045 0)
(-0.10296 -0.210552 0)
(-0.0646184 -0.19297 0)
(-0.0278627 -0.143112 0)
(-0.00557422 -0.057894 0)
(-0.00624673 0.0684855 0)
(-0.0291952 0.162903 0)
(-0.064795 0.214589 0)
(-0.100045 0.231267 0)
(-0.129126 0.222855 0)
(-0.151024 0.198027 0)
(-0.16645 0.163266 0)
(-0.176765 0.122881 0)
(-0.183394 0.0793914 0)
(-0.187447 0.0340485 0)
(-0.189513 -0.0126389 0)
(-0.189556 -0.0603812 0)
(-0.186858 -0.108567 0)
(-0.180018 -0.155654 0)
(-0.167095 -0.19848 0)
(-0.146023 -0.231549 0)
(-0.115392 -0.246545 0)
(-0.0759711 -0.232523 0)
(-0.0346689 -0.177682 0)
(-0.00747809 -0.0743161 0)
(-0.00850559 0.0860041 0)
(-0.0360851 0.196895 0)
(-0.0742694 0.250878 0)
(-0.107557 0.262267 0)
(-0.130885 0.246042 0)
(-0.145109 0.213769 0)
(-0.152599 0.173187 0)
(-0.155911 0.128859 0)
(-0.157249 0.0830197 0)
(-0.158199 0.0363791 0)
(-0.159631 -0.0112205 0)
(-0.161656 -0.0602355 0)
(-0.163554 -0.110856 0)
(-0.163672 -0.162333 0)
(-0.159386 -0.212086 0)
(-0.147308 -0.254574 0)
(-0.123922 -0.280077 0)
(-0.0873991 -0.273945 0)
(-0.0432708 -0.217728 0)
(-0.0103286 -0.0952731 0)
(-0.0121559 0.108592 0)
(-0.0452907 0.23506 0)
(-0.0832613 0.285967 0)
(-0.109169 0.28704 0)
(-0.120726 0.260048 0)
(-0.121941 0.219503 0)
(-0.117317 0.173875 0)
(-0.110618 0.127397 0)
(-0.104643 0.0815941 0)
(-0.101251 0.036381 0)
(-0.101474 -0.00919639 0)
(-0.105585 -0.0564315 0)
(-0.113033 -0.106468 0)
(-0.122229 -0.159669 0)
(-0.130244 -0.214641 0)
(-0.132585 -0.266685 0)
(-0.123304 -0.305605 0)
(-0.0965729 -0.313253 0)
(-0.0538718 -0.262475 0)
(-0.0146735 -0.122396 0)
(-0.0179385 0.13876 0)
(-0.056887 0.27585 0)
(-0.088105 0.314191 0)
(-0.0974345 0.298506 0)
(-0.0889441 0.258345 0)
(-0.0710456 0.2101 0)
(-0.0503289 0.161691 0)
(-0.0312454 0.116093 0)
(-0.0166113 0.0736158 0)
(-0.00810047 0.0332062 0)
(-0.0066387 -0.00686252 0)
(-0.0126107 -0.0486179 0)
(-0.0258352 -0.0940972 0)
(-0.045274 -0.144922 0)
(-0.068457 -0.201445 0)
(-0.0906672 -0.261015 0)
(-0.104043 -0.314803 0)
(-0.0978346 -0.342968 0)
(-0.0654413 -0.308949 0)
(-0.0209943 -0.158006 0)
(-0.0257482 0.180882 0)
(-0.0675776 0.314041 0)
(-0.0780983 0.324485 0)
(-0.056793 0.285829 0)
(-0.0188895 0.232899 0)
(0.0230173 0.180535 0)
(0.061678 0.13391 0)
(0.0933251 0.0936465 0)
(0.11617 0.0584869 0)
(0.12941 0.0264808 0)
(0.13261 -0.00458791 0)
(0.125401 -0.0370987 0)
(0.107444 -0.0735935 0)
(0.0786953 -0.116701 0)
(0.0400916 -0.1687 0)
(-0.00512974 -0.230111 0)
(-0.049337 -0.296183 0)
(-0.0781219 -0.349964 0)
(-0.0725259 -0.349431 0)
(-0.0283407 -0.205665 0)
(-0.0297778 0.239112 0)
(-0.0619642 0.334129 0)
(-0.0253402 0.296877 0)
(0.0438187 0.234729 0)
(0.116739 0.176386 0)
(0.181655 0.128445 0)
(0.234499 0.0908606 0)
(0.274404 0.0613983 0)
(0.301825 0.0374989 0)
(0.317453 0.0168361 0)
(0.321659 -0.00269948 0)
(0.31425 -0.0231913 0)
(0.294391 -0.0469512 0)
(0.260691 -0.0767955 0)
(0.211655 -0.116223 0)
(0.146886 -0.168999 0)
(0.0694225 -0.236915 0)
(-0.00911462 -0.313485 0)
(-0.0569588 -0.36468 0)
(-0.0288549 -0.266237 0)
(0.0081416 0.282121 0)
(0.0194808 0.294645 0)
(0.137447 0.20974 0)
(0.260586 0.141417 0)
(0.35749 0.0945868 0)
(0.430082 0.0630031 0)
(0.483054 0.0416392 0)
(0.520149 0.0267517 0)
(0.544357 0.0157319 0)
(0.557734 0.00680026 0)
(0.561322 -0.00136445 0)
(0.555165 -0.00994351 0)
(0.538254 -0.0202771 0)
(0.508365 -0.0342484 0)
(0.461906 -0.054841 0)
(0.393939 -0.0868397 0)
(0.297955 -0.137297 0)
(0.169379 -0.214309 0)
(0.0396808 -0.310294 0)
(0.0182103 -0.299664 0)
(0.299747 0.146243 0)
(0.396512 0.127568 0)
(0.557298 0.0759534 0)
(0.673499 0.0433975 0)
(0.741631 0.0251255 0)
(0.783428 0.0147587 0)
(0.810304 0.00876731 0)
(0.827507 0.00515931 0)
(0.837988 0.00280735 0)
(0.843423 0.00107565 0)
(0.844596 -0.00042773 0)
(0.841612 -0.00201221 0)
(0.833904 -0.00402855 0)
(0.820023 -0.00703737 0)
(0.797149 -0.0121025 0)
(0.759986 -0.0213351 0)
(0.696765 -0.038874 0)
(0.582786 -0.0723264 0)
(0.415553 -0.127686 0)
(0.308856 -0.149497 0)
)
;

boundaryField
{
    movingWall
    {
        type            fixedValue;
        value           uniform (1 0 0);
    }
    fixedWalls
    {
        type            noSlip;
    }
    frontAndBack
    {
        type            empty;
    }
}


// ************************************************************************* //
