0 	4.20874e-08
1.57135 	-1.18572e-07
3.1427 	1.80919e-06
4.71405 	1.40828e-05
6.28539 	5.32177e-05
7.85674 	0.000146582
9.42809 	0.000328324
10.9994 	0.000623514
12.5708 	0.000801404
14.1421 	0.00853524
