0 	2.97725e-07
1.57135 	-1.06699e-07
3.1427 	-5.3651e-06
4.71405 	-7.27227e-06
6.28539 	7.6643e-06
7.85674 	6.26251e-05
9.42809 	0.00033896
10.9994 	-0.023255
12.5708 	-0.0129498
14.1421 	0.381977
