/*--------------------------------*- C++ -*----------------------------------*\
  =========                 |
  \\      /  F ield         | OpenFOAM: The Open Source CFD Toolbox
   \\    /   O peration     | Website:  https://openfoam.org
    \\  /    A nd           | Version:  8
     \\/     M anipulation  |
\*---------------------------------------------------------------------------*/
FoamFile
{
    version     2.0;
    format      ascii;
    class       surfaceScalarField;
    location    "1.9";
    object      phi;
}
// * * * * * * * * * * * * * * * * * * * * * * * * * * * * * * * * * * * * * //

dimensions      [0 3 -1 0 0 0 0];

internalField   nonuniform List<scalar> 
760
(
1.2497e-06
-6.09144e-21
1.2497e-06
-3.01026e-21
1.2497e-06
-7.82773e-22
1.2497e-06
-8.41983e-23
1.2497e-06
2.69496e-23
1.2497e-06
1.03497e-22
1.2497e-06
5.01965e-22
1.2497e-06
6.18202e-22
1.2497e-06
4.16239e-22
1.2497e-06
1.24717e-22
1.2497e-06
2.71811e-22
1.2497e-06
5.77899e-23
1.2497e-06
-5.45533e-23
1.2497e-06
1.71636e-23
1.2497e-06
-1.08582e-22
1.2497e-06
3.52345e-23
1.2497e-06
2.03495e-22
1.2497e-06
-1.67007e-22
1.2497e-06
-5.82112e-22
-2.53901e-21
3.74912e-06
-4.71271e-21
3.74912e-06
-3.29937e-21
3.74912e-06
-1.80251e-21
3.74912e-06
-1.14759e-21
3.74912e-06
-5.28782e-22
3.74912e-06
-7.91209e-23
3.74912e-06
7.91516e-22
3.74912e-06
1.30193e-21
3.74912e-06
7.80197e-22
3.74912e-06
5.54572e-22
3.74912e-06
5.00454e-23
3.74912e-06
-1.63441e-22
3.74912e-06
6.1457e-23
3.74912e-06
1.87658e-22
3.74912e-06
-3.10257e-23
3.74912e-06
2.32646e-23
3.74912e-06
3.31517e-22
3.74912e-06
-4.66638e-22
3.74912e-06
-9.58491e-22
-2.95651e-21
6.24856e-06
-2.94291e-21
6.24856e-06
-3.2685e-21
6.24856e-06
-2.1042e-21
6.24856e-06
-4.62156e-22
6.24856e-06
6.2263e-23
6.24856e-06
-1.69212e-22
6.24856e-06
4.35757e-22
6.24856e-06
5.22469e-22
6.24856e-06
-2.76923e-22
6.24856e-06
-5.60196e-22
6.24856e-06
6.18141e-22
6.24856e-06
1.91087e-22
6.24856e-06
-7.69284e-23
6.24856e-06
-7.83778e-22
6.24856e-06
-2.9441e-22
6.24856e-06
-1.00122e-22
6.24856e-06
5.82998e-22
6.24856e-06
9.91061e-22
6.24856e-06
-4.83651e-22
-1.38214e-21
8.74804e-06
-1.00699e-21
8.74804e-06
-1.73232e-21
8.74804e-06
-1.34547e-21
8.74804e-06
-9.23707e-22
8.74804e-06
-1.59221e-21
8.74804e-06
1.70326e-22
8.74804e-06
1.22515e-22
8.74804e-06
4.64506e-22
8.74804e-06
7.50826e-22
8.74804e-06
-1.14067e-22
8.74804e-06
-1.48371e-21
8.74804e-06
-1.75883e-21
8.74804e-06
-2.17221e-21
8.74804e-06
-1.31697e-21
8.74804e-06
-5.90454e-22
8.74804e-06
-2.0037e-22
8.74804e-06
-2.88661e-22
8.74804e-06
2.03723e-21
8.74804e-06
2.20646e-21
9.16286e-22
1.12476e-05
2.60863e-22
1.12476e-05
-5.42888e-22
1.12476e-05
-1.14491e-21
1.12476e-05
-2.19742e-21
1.12476e-05
-1.56749e-21
1.12476e-05
-7.20642e-22
1.12476e-05
-2.02505e-22
1.12476e-05
-1.29935e-21
1.12476e-05
-1.77845e-21
1.12476e-05
-2.80173e-21
1.12476e-05
-3.02174e-21
1.12476e-05
-3.65403e-21
1.12476e-05
-2.40541e-21
1.12476e-05
-1.10191e-21
1.12476e-05
2.4624e-22
1.12476e-05
1.49508e-21
1.12476e-05
3.93362e-21
1.12476e-05
3.05061e-21
1.12476e-05
2.64255e-21
2.44045e-21
1.37471e-05
1.63867e-21
1.37471e-05
1.08919e-21
1.37471e-05
3.69006e-22
1.37471e-05
-1.55161e-21
1.37471e-05
-2.7797e-21
1.37471e-05
-2.38757e-21
1.37471e-05
-2.17484e-21
1.37471e-05
-1.55409e-21
1.37471e-05
-1.52e-21
1.37471e-05
-4.43604e-21
1.37471e-05
-3.80003e-21
1.37471e-05
-3.90186e-21
1.37471e-05
-3.52173e-21
1.37471e-05
-1.92698e-21
1.37471e-05
5.33397e-22
1.37471e-05
2.64273e-21
1.37471e-05
4.31249e-21
1.37471e-05
5.22179e-21
1.37471e-05
4.27397e-21
2.16308e-21
1.62468e-05
3.08767e-21
1.62468e-05
1.596e-21
1.62468e-05
7.25131e-22
1.62468e-05
-1.21285e-21
1.62468e-05
-1.52026e-21
1.62468e-05
-4.69487e-21
1.62468e-05
-5.82635e-21
1.62468e-05
-5.18588e-21
1.62468e-05
-5.99757e-21
1.62468e-05
-4.59305e-21
1.62468e-05
-4.85316e-21
1.62468e-05
-3.78901e-21
1.62468e-05
-3.09388e-21
1.62468e-05
-3.04984e-22
1.62468e-05
1.3756e-21
1.62468e-05
4.04269e-21
1.62468e-05
6.59068e-21
1.62468e-05
6.79903e-21
1.62468e-05
5.42112e-21
2.76236e-21
1.87465e-05
3.62988e-21
1.87465e-05
3.37289e-21
1.87465e-05
-9.60448e-22
1.87465e-05
-2.21562e-21
1.87465e-05
-4.01514e-21
1.87465e-05
-4.52253e-21
1.87465e-05
-5.96965e-21
1.87465e-05
-5.92653e-21
1.87465e-05
-7.08527e-21
1.87465e-05
-8.05017e-21
1.87465e-05
-8.79896e-21
1.87465e-05
-5.59867e-21
1.87465e-05
-1.07539e-21
1.87465e-05
1.28918e-21
1.87465e-05
3.78577e-21
1.87465e-05
6.1047e-21
1.87465e-05
6.04193e-21
1.87465e-05
8.05039e-21
1.87465e-05
8.73031e-21
7.2666e-21
2.12464e-05
8.32597e-21
2.12464e-05
4.41609e-21
2.12464e-05
6.11464e-22
2.12464e-05
-2.72651e-21
2.12464e-05
-3.82799e-21
2.12464e-05
-5.81872e-21
2.12464e-05
-7.72029e-21
2.12464e-05
-9.05016e-21
2.12464e-05
-8.95681e-21
2.12464e-05
-9.08664e-21
2.12464e-05
-8.21021e-21
2.12464e-05
-4.48923e-21
2.12464e-05
-9.72186e-22
2.12464e-05
1.91467e-21
2.12464e-05
4.06557e-21
2.12464e-05
6.43939e-21
2.12464e-05
5.60381e-21
2.12464e-05
5.77273e-21
2.12464e-05
7.5723e-21
8.98935e-21
2.37463e-05
9.45139e-21
2.37463e-05
6.71755e-21
2.37463e-05
3.60324e-21
2.37463e-05
-1.69004e-21
2.37463e-05
-7.91728e-21
2.37463e-05
-8.69169e-21
2.37463e-05
-9.8098e-21
2.37463e-05
-9.82194e-21
2.37463e-05
-1.05909e-20
2.37463e-05
-8.2472e-21
2.37463e-05
-5.79265e-21
2.37463e-05
-4.11781e-21
2.37463e-05
-1.2439e-21
2.37463e-05
2.95686e-21
2.37463e-05
6.19172e-21
2.37463e-05
5.49957e-21
2.37463e-05
5.34623e-21
2.37463e-05
7.29741e-21
2.37463e-05
7.5523e-21
7.2841e-21
2.62463e-05
6.48098e-21
2.62463e-05
5.744e-21
2.62463e-05
3.73038e-21
2.62463e-05
-2.26245e-21
2.62463e-05
-5.19483e-21
2.62463e-05
-7.33405e-21
2.62463e-05
-1.0692e-20
2.62463e-05
-1.34613e-20
2.62463e-05
-1.1892e-20
2.62463e-05
-8.68583e-21
2.62463e-05
-4.82206e-21
2.62463e-05
-3.31416e-22
2.62463e-05
2.18142e-21
2.62463e-05
2.99134e-21
2.62463e-05
4.33768e-21
2.62463e-05
6.81115e-21
2.62463e-05
6.42016e-21
2.62463e-05
6.82474e-21
2.62463e-05
7.01863e-21
7.46204e-21
2.87464e-05
7.83803e-21
2.87464e-05
3.4104e-21
2.87464e-05
5.70341e-22
2.87464e-05
-3.41953e-21
2.87464e-05
-7.94031e-21
2.87464e-05
-1.22412e-20
2.87464e-05
-1.29452e-20
2.87464e-05
-1.24314e-20
2.87464e-05
-9.51776e-21
2.87464e-05
-7.24285e-21
2.87464e-05
-5.17101e-21
2.87464e-05
3.42271e-21
2.87464e-05
6.83833e-21
2.87464e-05
6.22284e-21
2.87464e-05
9.4949e-21
2.87464e-05
4.34091e-21
2.87464e-05
5.14307e-21
2.87464e-05
1.05192e-20
2.87464e-05
6.99772e-21
6.37232e-21
3.12465e-05
4.56858e-21
3.12465e-05
3.20335e-21
3.12465e-05
-3.90056e-22
3.12465e-05
-5.24847e-21
3.12465e-05
-7.58752e-21
3.12465e-05
-1.27137e-20
3.12465e-05
-1.295e-20
3.12465e-05
-1.22123e-20
3.12465e-05
-9.16345e-21
3.12465e-05
-7.6185e-21
3.12465e-05
7.50549e-22
3.12465e-05
6.85331e-21
3.12465e-05
9.98081e-21
3.12465e-05
1.44646e-20
3.12465e-05
8.82868e-21
3.12465e-05
1.02276e-20
3.12465e-05
7.14281e-21
3.12465e-05
2.33988e-21
3.12465e-05
4.96738e-21
6.84336e-21
3.37468e-05
-2.05754e-21
3.37468e-05
-3.59451e-22
3.37468e-05
-5.13047e-21
3.37468e-05
-7.6628e-21
3.37468e-05
-9.44946e-21
3.37468e-05
-9.17619e-21
3.37468e-05
-1.17285e-20
3.37468e-05
-1.13235e-20
3.37468e-05
-6.80502e-21
3.37468e-05
-3.92448e-21
3.37468e-05
1.86134e-21
3.37468e-05
3.71576e-21
3.37468e-05
8.34914e-21
3.37468e-05
1.15766e-20
3.37468e-05
1.56671e-20
3.37468e-05
1.06555e-20
3.37468e-05
9.43621e-21
3.37468e-05
8.50181e-21
3.37468e-05
4.51039e-21
-1.34315e-21
3.62471e-05
-1.90621e-21
3.62471e-05
-2.73751e-21
3.62471e-05
-3.63591e-21
3.62471e-05
-4.75565e-21
3.62471e-05
-8.409e-21
3.62471e-05
-8.4854e-21
3.62471e-05
-1.14604e-20
3.62471e-05
-1.12804e-20
3.62471e-05
-9.8193e-21
3.62471e-05
-4.46351e-21
3.62471e-05
-1.02539e-21
3.62471e-05
3.51106e-21
3.62471e-05
1.10886e-20
3.62471e-05
1.59325e-20
3.62471e-05
1.19374e-20
3.62471e-05
1.0404e-20
3.62471e-05
8.98274e-21
3.62471e-05
4.71253e-21
3.62471e-05
1.68377e-21
-9.90706e-22
3.87476e-05
-5.13714e-21
3.87476e-05
-2.29762e-21
3.87476e-05
-4.49102e-21
3.87476e-05
-2.15739e-21
3.87476e-05
-1.39841e-21
3.87476e-05
-7.21363e-21
3.87476e-05
-1.17471e-20
3.87476e-05
-1.09493e-20
3.87476e-05
-9.81283e-21
3.87476e-05
-1.84805e-21
3.87476e-05
1.09413e-21
3.87476e-05
5.2373e-21
3.87476e-05
1.287e-20
3.87476e-05
1.14273e-20
3.87476e-05
9.95386e-21
3.87476e-05
8.96237e-21
3.87476e-05
4.33778e-21
3.87476e-05
6.13047e-22
3.87476e-05
-4.11842e-21
-2.02817e-21
4.1248e-05
-5.53754e-21
4.1248e-05
-3.27886e-21
4.1248e-05
6.92032e-22
4.1248e-05
1.44136e-21
4.1248e-05
4.577e-22
4.1248e-05
-3.99488e-21
4.1248e-05
-9.61147e-21
4.1248e-05
-9.81996e-21
4.1248e-05
-7.78948e-21
4.1248e-05
-6.83129e-21
4.1248e-05
2.42933e-21
4.1248e-05
8.89732e-21
4.1248e-05
1.2965e-20
4.1248e-05
1.14851e-20
4.1248e-05
8.77488e-21
4.1248e-05
5.75096e-21
4.1248e-05
1.74271e-21
4.1248e-05
-4.5381e-21
4.1248e-05
-6.25192e-22
-1.75595e-21
4.37486e-05
2.64873e-21
4.37486e-05
1.89825e-22
4.37486e-05
6.24001e-21
4.37486e-05
5.59848e-21
4.37486e-05
5.73265e-22
4.37486e-05
-8.00765e-21
4.37486e-05
-1.3387e-20
4.37486e-05
-1.42989e-20
4.37486e-05
-3.77438e-21
4.37486e-05
-1.74134e-22
4.37486e-05
1.32754e-22
4.37486e-05
7.01643e-21
4.37486e-05
8.7797e-21
4.37486e-05
6.17735e-21
4.37486e-05
3.44571e-21
4.37486e-05
-3.60043e-22
4.37486e-05
-1.21141e-21
4.37486e-05
-8.37295e-22
4.37486e-05
1.37363e-21
2.25945e-21
4.62491e-05
6.37246e-21
4.62491e-05
-3.70776e-21
4.62491e-05
1.41008e-21
4.62491e-05
9.14664e-21
4.62491e-05
5.96129e-21
4.62491e-05
-1.7016e-21
4.62491e-05
-5.95125e-21
4.62491e-05
-8.18035e-21
4.62491e-05
-5.24996e-21
4.62491e-05
1.67751e-21
4.62491e-05
2.92663e-21
4.62491e-05
9.5616e-22
4.62491e-05
2.858e-21
4.62491e-05
2.09664e-21
4.62491e-05
6.69625e-22
4.62491e-05
8.03665e-22
4.62491e-05
-1.71598e-21
4.62491e-05
-4.62271e-21
4.62491e-05
-1.07473e-21
4.43393e-21
4.87497e-05
4.87497e-05
4.87497e-05
4.87497e-05
4.87497e-05
4.87497e-05
4.87497e-05
4.87497e-05
4.87497e-05
4.87497e-05
4.87497e-05
4.87497e-05
4.87497e-05
4.87497e-05
4.87497e-05
4.87497e-05
4.87497e-05
4.87497e-05
4.87497e-05
)
;

boundaryField
{
    movingWall
    {
        type            calculated;
        value           uniform 0;
    }
    fixedWalls
    {
        type            calculated;
        value           uniform 0;
    }
    left
    {
        type            cyclic;
        value           nonuniform List<scalar> 
20
(
-3.87476e-05
-3.62471e-05
-3.37468e-05
-3.12465e-05
-2.87464e-05
-2.62463e-05
-2.37463e-05
-2.12464e-05
-1.87465e-05
-1.62468e-05
-1.37471e-05
-1.12476e-05
-8.74804e-06
-6.24856e-06
-3.74912e-06
-1.2497e-06
-4.1248e-05
-4.37486e-05
-4.62491e-05
-4.87497e-05
)
;
    }
    right
    {
        type            cyclic;
        value           nonuniform List<scalar> 
20
(
3.87476e-05
3.62471e-05
3.37468e-05
3.12465e-05
2.87464e-05
2.62463e-05
2.37463e-05
2.12464e-05
1.87465e-05
1.62468e-05
1.37471e-05
1.12476e-05
8.74804e-06
6.24856e-06
3.74912e-06
1.2497e-06
4.1248e-05
4.37486e-05
4.62491e-05
4.87497e-05
)
;
    }
    frontAndBack
    {
        type            empty;
        value           nonuniform List<scalar> 0();
    }
}


// ************************************************************************* //
