/*--------------------------------*- C++ -*----------------------------------*\
  =========                 |
  \\      /  F ield         | OpenFOAM: The Open Source CFD Toolbox
   \\    /   O peration     | Website:  https://openfoam.org
    \\  /    A nd           | Version:  8
     \\/     M anipulation  |
\*---------------------------------------------------------------------------*/
FoamFile
{
    version     2.0;
    format      ascii;
    class       volVectorField;
    location    "83";
    object      U;
}
// * * * * * * * * * * * * * * * * * * * * * * * * * * * * * * * * * * * * * //

dimensions      [0 1 -1 0 0 0 0];

internalField   nonuniform List<vector> 
400
(
(1 1.03105e-16 0)
(1 6.17234e-17 0)
(1 5.98635e-17 0)
(1 6.33811e-18 0)
(1 6.76652e-18 0)
(1 9.01712e-17 0)
(1 -7.36818e-19 0)
(1 4.37786e-17 0)
(1 1.15616e-16 0)
(1 5.8259e-17 0)
(1 -2.04763e-17 0)
(1 -1.13793e-16 0)
(1 -1.83814e-16 0)
(1 -1.30744e-16 0)
(1 -1.02544e-16 0)
(1 -1.46595e-16 0)
(1 -1.16134e-16 0)
(1 -3.199e-17 0)
(1 -1.25773e-16 0)
(1 -1.89883e-16 0)
(1 9.37178e-17 0)
(1 9.99231e-17 0)
(1 5.2985e-17 0)
(1 1.0851e-17 0)
(1 -4.6635e-17 0)
(1 4.1099e-17 0)
(1 6.70489e-18 0)
(1 2.56449e-17 0)
(1 5.60008e-17 0)
(1 2.44916e-17 0)
(1 -3.53407e-17 0)
(1 -1.47046e-16 0)
(1 -2.16299e-16 0)
(1 -1.50029e-16 0)
(1 -5.00897e-17 0)
(1 -1.18931e-16 0)
(1 -8.57839e-17 0)
(1 -3.43617e-17 0)
(1 -1.20598e-16 0)
(1 -1.44515e-16 0)
(1 -4.93708e-17 0)
(1 9.79524e-17 0)
(1 8.62029e-17 0)
(1 6.40283e-17 0)
(1 -8.37801e-17 0)
(1 -2.90323e-17 0)
(1 4.43795e-17 0)
(1 -4.5732e-18 0)
(1 -6.32733e-17 0)
(1 -2.02807e-17 0)
(1 -3.49863e-17 0)
(1 -1.10987e-16 0)
(1 -1.24162e-16 0)
(1 -1.60072e-16 0)
(1 -1.276e-17 0)
(1 -4.06429e-17 0)
(1 -8.92727e-17 0)
(1 -1.37666e-16 0)
(1 -1.08311e-16 0)
(1 -9.25821e-17 0)
(1 -9.84503e-17 0)
(1 1.48356e-17 0)
(1 5.82918e-17 0)
(1 2.90234e-17 0)
(1 -4.76238e-17 0)
(1 -6.27015e-17 0)
(1 2.08071e-17 0)
(1 3.26462e-18 0)
(1 -9.90899e-17 0)
(1 -3.4335e-17 0)
(1 -3.79806e-17 0)
(1 -2.00257e-17 0)
(1 -1.59652e-17 0)
(1 -7.38955e-17 0)
(1 -1.57872e-17 0)
(1 -1.44853e-17 0)
(1 -9.47194e-17 0)
(1 -1.96644e-16 0)
(1 -1.72123e-16 0)
(1 -9.78956e-17 0)
(1 -6.44095e-17 0)
(1 -1.6009e-17 0)
(1 2.62363e-17 0)
(1 -4.2989e-17 0)
(1 -7.41283e-17 0)
(1 -1.07601e-16 0)
(1 -2.74205e-17 0)
(1 -3.42191e-17 0)
(1 -9.62042e-17 0)
(1 -8.81956e-17 0)
(1 -6.0053e-17 0)
(1 6.38069e-18 0)
(1 -3.82873e-17 0)
(1 5.34948e-18 0)
(1 3.9429e-18 0)
(1 -7.79423e-17 0)
(1 -1.28332e-16 0)
(1 -1.80466e-16 0)
(1 -1.57588e-16 0)
(1 -6.47826e-17 0)
(1 -1.29804e-17 0)
(1 -4.14382e-18 0)
(1 4.78327e-17 0)
(1 -5.52825e-17 0)
(1 -1.28482e-16 0)
(1 -9.17338e-17 0)
(1 -6.00046e-17 0)
(1 -1.01322e-16 0)
(1 -9.67192e-17 0)
(1 -1.93003e-16 0)
(1 -1.02997e-16 0)
(1 -8.08327e-17 0)
(1 -8.24747e-17 0)
(1 -7.7234e-17 0)
(1 -5.01309e-17 0)
(1 -7.21727e-17 0)
(1 -1.68614e-16 0)
(1 -1.37562e-16 0)
(1 -1.07873e-16 0)
(1 -8.10288e-17 0)
(1 8.9799e-17 0)
(1 1.02561e-17 0)
(1 -7.44074e-19 0)
(1 -5.25003e-17 0)
(1 -7.55461e-17 0)
(1 -7.87747e-17 0)
(1 -8.34787e-17 0)
(1 -8.95202e-17 0)
(1 -8.70653e-17 0)
(1 -2.3435e-16 0)
(1 -1.22905e-16 0)
(1 -1.55915e-16 0)
(1 -9.52393e-17 0)
(1 -1.61922e-16 0)
(1 -1.62591e-16 0)
(1 -1.20659e-16 0)
(1 -1.5145e-16 0)
(1 -1.0077e-16 0)
(1 -1.16616e-16 0)
(1 -1.09953e-16 0)
(1 1.04266e-16 0)
(1 4.39734e-17 0)
(1 -8.51029e-17 0)
(1 -4.30408e-17 0)
(1 1.56524e-17 0)
(1 -2.42406e-17 0)
(1 -6.96357e-17 0)
(1 -6.37438e-17 0)
(1 -1.15378e-16 0)
(1 -2.26419e-16 0)
(1 -1.75004e-16 0)
(1 -8.5463e-17 0)
(1 -1.66029e-16 0)
(1 -1.55592e-16 0)
(1 -2.56287e-16 0)
(1 -2.2451e-16 0)
(1 -1.69609e-16 0)
(1 -1.31313e-16 0)
(1 -9.71332e-17 0)
(1 -7.63383e-17 0)
(1 5.49138e-17 0)
(1 4.3492e-17 0)
(1 -6.00049e-17 0)
(1 -4.77248e-17 0)
(1 4.50048e-17 0)
(1 1.29567e-17 0)
(1 -5.39361e-17 0)
(1 -1.13066e-16 0)
(1 -2.01218e-16 0)
(1 -2.13673e-16 0)
(1 -1.21127e-16 0)
(1 -4.53752e-17 0)
(1 -2.23988e-16 0)
(1 -1.90452e-16 0)
(1 -3.02746e-16 0)
(1 -2.80825e-16 0)
(1 -1.79285e-16 0)
(1 -1.76357e-16 0)
(1 -8.99185e-17 0)
(1 -3.01273e-17 0)
(1 3.47492e-17 0)
(1 -4.41858e-17 0)
(1 -4.36448e-17 0)
(1 1.07303e-17 0)
(1 3.78411e-17 0)
(1 -5.68023e-18 0)
(1 -7.22552e-17 0)
(1 -1.62633e-16 0)
(1 -2.6368e-16 0)
(1 -1.97954e-16 0)
(1 -3.11005e-17 0)
(1 -1.00416e-16 0)
(1 -1.91271e-16 0)
(1 -2.78645e-16 0)
(1 -2.97329e-16 0)
(1 -2.86613e-16 0)
(1 -1.85181e-16 0)
(1 -1.02597e-16 0)
(1 -7.0876e-17 0)
(1 1.94406e-18 0)
(1 3.90794e-17 0)
(1 -5.23703e-17 0)
(1 -1.21584e-16 0)
(1 -3.31304e-17 0)
(1 3.0121e-17 0)
(1 7.61451e-18 0)
(1 -9.68717e-17 0)
(1 -2.21916e-16 0)
(1 -2.89876e-16 0)
(1 -1.87395e-16 0)
(1 -8.01144e-17 0)
(1 -1.13301e-16 0)
(1 -1.60983e-16 0)
(1 -2.45941e-16 0)
(1 -2.61759e-16 0)
(1 -2.44218e-16 0)
(1 -2.14254e-16 0)
(1 -1.01668e-16 0)
(1 -6.77513e-17 0)
(1 -2.88416e-17 0)
(1 7.73181e-18 0)
(1 -3.66299e-17 0)
(1 -1.25726e-16 0)
(1 -8.8659e-17 0)
(1 -2.89262e-17 0)
(1 -4.94746e-17 0)
(1 -2.12665e-16 0)
(1 -2.434e-16 0)
(1 -1.90708e-16 0)
(1 -1.18528e-16 0)
(1 -1.74754e-16 0)
(1 -1.73502e-16 0)
(1 -1.4295e-16 0)
(1 -1.11743e-16 0)
(1 -2.32942e-16 0)
(1 -2.28933e-16 0)
(1 -2.31111e-16 0)
(1 -1.86157e-16 0)
(1 -1.44989e-16 0)
(1 -1.6012e-16 0)
(1 -1.13738e-16 0)
(1 -7.32806e-17 0)
(1 -2.58923e-17 0)
(1 -1.58497e-17 0)
(1 -1.438e-16 0)
(1 -1.85616e-16 0)
(1 -2.06762e-16 0)
(1 -1.7108e-16 0)
(1 -5.29207e-17 0)
(1 -7.83221e-17 0)
(1 -2.68975e-16 0)
(1 -2.74263e-16 0)
(1 -1.23368e-16 0)
(1 -1.16629e-16 0)
(1 -1.27305e-16 0)
(1 -1.57497e-16 0)
(1 -3.04633e-16 0)
(1 -2.79725e-16 0)
(1 -2.55499e-16 0)
(1 -2.7361e-16 0)
(1 -1.50768e-16 0)
(1 -5.5963e-17 0)
(1 8.80086e-18 0)
(1 1.56345e-17 0)
(1 -1.45063e-16 0)
(1 -2.31354e-16 0)
(1 -1.50407e-16 0)
(1 -9.9803e-17 0)
(1 -4.92836e-17 0)
(1 -1.11164e-16 0)
(1 -2.63533e-16 0)
(1 -2.67417e-16 0)
(1 -1.33781e-16 0)
(1 -1.61867e-16 0)
(1 -1.0084e-16 0)
(1 -1.73627e-16 0)
(1 -2.73986e-16 0)
(1 -3.67435e-16 0)
(1 -3.52366e-16 0)
(1 -3.06895e-16 0)
(1 -5.49613e-17 0)
(1 -1.01003e-16 0)
(1 -6.188e-17 0)
(1 -5.17823e-17 0)
(1 -5.60806e-17 0)
(1 -1.159e-16 0)
(1 -1.02859e-16 0)
(1 -7.32067e-17 0)
(1 -9.93073e-17 0)
(1 -1.01395e-16 0)
(1 -1.88838e-16 0)
(1 -2.08418e-16 0)
(1 -1.65211e-16 0)
(1 -1.809e-16 0)
(1 -1.90015e-16 0)
(1 -1.9547e-16 0)
(1 -2.20876e-16 0)
(1 -3.25054e-16 0)
(1 -3.77111e-16 0)
(1 -3.37873e-16 0)
(1 -1.98161e-17 0)
(1 -1.61844e-16 0)
(1 -1.2176e-16 0)
(1 -1.49234e-16 0)
(1 -4.41385e-17 0)
(1 -4.42127e-17 0)
(1 -1.55126e-17 0)
(1 -3.99197e-17 0)
(1 -7.87308e-17 0)
(1 -7.59179e-17 0)
(1 -1.57335e-16 0)
(1 -2.16583e-16 0)
(1 -1.69369e-16 0)
(1 -1.73993e-16 0)
(1 -1.3766e-16 0)
(1 -1.034e-16 0)
(1 -1.88011e-16 0)
(1 -2.80395e-16 0)
(1 -3.30041e-16 0)
(1 -3.67991e-16 0)
(1 -1.90179e-17 0)
(1 -1.19703e-16 0)
(1 -1.87458e-16 0)
(1 -1.72514e-16 0)
(1 -8.58756e-17 0)
(1 -4.44057e-17 0)
(1 7.60395e-19 0)
(1 2.41941e-17 0)
(1 1.3997e-17 0)
(1 -1.15484e-16 0)
(1 -1.71693e-16 0)
(1 -1.7581e-16 0)
(1 -1.11824e-16 0)
(1 -7.11066e-17 0)
(1 -4.08284e-17 0)
(1 -8.91453e-17 0)
(1 -1.57374e-16 0)
(1 -2.58326e-16 0)
(1 -2.78894e-16 0)
(1 -3.57821e-16 0)
(1 8.68066e-18 0)
(1 -7.60281e-17 0)
(1 -1.78055e-16 0)
(1 -1.28142e-16 0)
(1 -1.01642e-16 0)
(1 -3.46962e-17 0)
(1 -1.41076e-17 0)
(1 -6.29804e-18 0)
(1 -1.47336e-18 0)
(1 -1.12589e-16 0)
(1 -1.23796e-16 0)
(1 -7.43848e-17 0)
(1 -2.9502e-17 0)
(1 1.95187e-17 0)
(1 -4.45159e-17 0)
(1 -1.39926e-16 0)
(1 -2.06739e-16 0)
(1 -2.44877e-16 0)
(1 -2.51747e-16 0)
(1 -3.46866e-16 0)
(1 9.2391e-19 0)
(1 -7.85499e-17 0)
(1 -1.06564e-16 0)
(1 -7.30659e-17 0)
(1 -5.99614e-17 0)
(1 -4.08416e-17 0)
(1 -7.40722e-17 0)
(1 -9.27914e-17 0)
(1 -1.21779e-16 0)
(1 -4.93765e-17 0)
(1 -3.67629e-17 0)
(1 9.52567e-18 0)
(1 5.17324e-17 0)
(1 1.67266e-17 0)
(1 -1.20282e-16 0)
(1 -1.70115e-16 0)
(1 -2.00555e-16 0)
(1 -2.50513e-16 0)
(1 -2.87258e-16 0)
(1 -3.104e-16 0)
(1 -6.78392e-18 0)
(1 -6.43346e-17 0)
(1 -7.13013e-17 0)
(1 -5.7966e-17 0)
(1 -3.29164e-17 0)
(1 -4.75073e-17 0)
(1 -8.80055e-17 0)
(1 -1.23573e-16 0)
(1 -1.68576e-16 0)
(1 -5.92817e-17 0)
(1 -1.55619e-17 0)
(1 4.01177e-17 0)
(1 7.17151e-17 0)
(1 -1.03963e-17 0)
(1 -1.06224e-16 0)
(1 -1.45979e-16 0)
(1 -1.83448e-16 0)
(1 -2.44382e-16 0)
(1 -3.01159e-16 0)
(1 -2.67654e-16 0)
)
;

boundaryField
{
    inlet
    {
        type            fixedValue;
        value           uniform (1 0 0);
    }
    outlet
    {
        type            zeroGradient;
    }
    up
    {
        type            zeroGradient;
    }
    down
    {
        type            zeroGradient;
    }
    frontAndBack
    {
        type            empty;
    }
}


// ************************************************************************* //
