/*--------------------------------*- C++ -*----------------------------------*\
  =========                 |
  \\      /  F ield         | OpenFOAM: The Open Source CFD Toolbox
   \\    /   O peration     | Website:  https://openfoam.org
    \\  /    A nd           | Version:  8
     \\/     M anipulation  |
\*---------------------------------------------------------------------------*/
FoamFile
{
    version     2.0;
    format      ascii;
    class       volScalarField;
    location    "0.93";
    object      p;
}
// * * * * * * * * * * * * * * * * * * * * * * * * * * * * * * * * * * * * * //

dimensions      [0 2 -2 0 0 0 0];

internalField   nonuniform List<scalar> 
400
(
1.50337e-12
-3.33027e-07
-2.76653e-07
-9.01671e-08
8.05373e-08
2.45816e-07
4.1567e-07
5.80668e-07
7.26427e-07
8.51964e-07
9.69064e-07
1.09105e-06
1.22432e-06
1.36579e-06
1.50272e-06
1.61287e-06
1.66719e-06
1.60851e-06
1.28595e-06
6.52659e-07
2.13635e-07
-4.74438e-08
1.26206e-08
1.6566e-07
2.97613e-07
4.24682e-07
5.64697e-07
7.04564e-07
8.25407e-07
9.24744e-07
1.01474e-06
1.1092e-06
1.21435e-06
1.32641e-06
1.43141e-06
1.50847e-06
1.5444e-06
1.51221e-06
1.29638e-06
7.90969e-07
4.81489e-07
2.01899e-07
2.4705e-07
3.90939e-07
5.00313e-07
5.98976e-07
7.1512e-07
8.35489e-07
9.37668e-07
1.01665e-06
1.08434e-06
1.15573e-06
1.23847e-06
1.32993e-06
1.41733e-06
1.48365e-06
1.53249e-06
1.56317e-06
1.44857e-06
1.03276e-06
7.17999e-07
3.99475e-07
4.49414e-07
6.04177e-07
7.03236e-07
7.81695e-07
8.81073e-07
9.88478e-07
1.077e-06
1.13839e-06
1.18459e-06
1.23285e-06
1.2936e-06
1.36647e-06
1.44106e-06
1.50587e-06
1.58021e-06
1.68105e-06
1.65733e-06
1.28493e-06
9.05094e-07
5.561e-07
6.25534e-07
8.07698e-07
9.09883e-07
9.78225e-07
1.06806e-06
1.16709e-06
1.24425e-06
1.28861e-06
1.31287e-06
1.33754e-06
1.37648e-06
1.4314e-06
1.49362e-06
1.55692e-06
1.65513e-06
1.81918e-06
1.87068e-06
1.51813e-06
1.07352e-06
6.90467e-07
7.81692e-07
1.00041e-06
1.11724e-06
1.18503e-06
1.27111e-06
1.36432e-06
1.43097e-06
1.45861e-06
1.46149e-06
1.46406e-06
1.48391e-06
1.52417e-06
1.57612e-06
1.63673e-06
1.75206e-06
1.96627e-06
2.07877e-06
1.73675e-06
1.23998e-06
8.19946e-07
9.29204e-07
1.18616e-06
1.32366e-06
1.39676e-06
1.48238e-06
1.57081e-06
1.62718e-06
1.63871e-06
1.62179e-06
1.60511e-06
1.61015e-06
1.64088e-06
1.68679e-06
1.74534e-06
1.87161e-06
2.1227e-06
2.28391e-06
1.95021e-06
1.41643e-06
9.59716e-07
1.07984e-06
1.37047e-06
1.52932e-06
1.60974e-06
1.69561e-06
1.77892e-06
1.82494e-06
1.82144e-06
1.78711e-06
1.75469e-06
1.7494e-06
1.77569e-06
1.82006e-06
1.87831e-06
2.01119e-06
2.2877e-06
2.48767e-06
2.16479e-06
1.60783e-06
1.1175e-06
1.23961e-06
1.55533e-06
1.73253e-06
1.81965e-06
1.90505e-06
1.98259e-06
2.01881e-06
2.00271e-06
1.95486e-06
1.91118e-06
1.89999e-06
1.92597e-06
1.97233e-06
2.03186e-06
2.168e-06
2.45984e-06
2.68953e-06
2.38182e-06
1.81336e-06
1.29436e-06
1.4092e-06
1.73925e-06
1.92965e-06
2.02154e-06
2.1053e-06
2.17688e-06
2.20519e-06
2.18069e-06
2.12499e-06
2.07573e-06
2.0632e-06
2.09206e-06
2.14245e-06
2.20377e-06
2.33971e-06
2.63717e-06
2.88726e-06
2.59883e-06
2.02878e-06
1.48764e-06
1.58651e-06
1.91926e-06
2.11674e-06
2.21106e-06
2.29226e-06
2.35853e-06
2.38192e-06
2.35451e-06
2.29782e-06
2.24942e-06
2.24015e-06
2.27429e-06
2.3294e-06
2.39172e-06
2.52343e-06
2.8168e-06
3.07732e-06
2.81109e-06
2.24766e-06
1.69252e-06
1.76793e-06
2.0919e-06
2.29039e-06
2.38531e-06
2.46386e-06
2.52628e-06
2.54833e-06
2.52368e-06
2.47275e-06
2.43131e-06
2.4293e-06
2.47016e-06
2.52956e-06
2.59118e-06
2.71433e-06
2.99405e-06
3.25454e-06
3.01216e-06
2.46159e-06
1.90222e-06
1.94829e-06
2.25274e-06
2.44701e-06
2.54198e-06
2.61914e-06
2.68015e-06
2.70461e-06
2.68773e-06
2.64799e-06
2.61811e-06
2.62588e-06
2.67369e-06
2.7361e-06
2.79497e-06
2.90554e-06
3.16273e-06
3.41247e-06
3.19412e-06
2.66095e-06
2.10817e-06
2.1207e-06
2.39575e-06
2.58144e-06
2.67732e-06
2.75601e-06
2.81921e-06
2.85003e-06
2.84495e-06
2.82014e-06
2.80441e-06
2.82275e-06
2.8766e-06
2.94034e-06
2.9948e-06
3.08993e-06
3.31711e-06
3.54543e-06
3.34922e-06
2.83718e-06
2.30139e-06
2.27771e-06
2.51406e-06
2.68683e-06
2.78509e-06
2.8693e-06
2.9393e-06
2.98065e-06
2.99066e-06
2.983e-06
2.98242e-06
3.011e-06
3.06965e-06
3.13364e-06
3.18347e-06
3.26248e-06
3.45456e-06
3.65161e-06
3.4728e-06
2.98538e-06
2.47443e-06
2.41334e-06
2.60247e-06
2.75719e-06
2.85845e-06
2.9518e-06
3.03308e-06
3.08879e-06
3.11642e-06
3.12716e-06
3.14198e-06
3.18041e-06
3.24349e-06
3.30841e-06
3.35585e-06
3.42105e-06
3.57643e-06
3.73433e-06
3.56552e-06
3.10397e-06
2.62211e-06
2.52451e-06
2.66074e-06
2.79264e-06
2.89593e-06
2.99989e-06
3.09496e-06
3.16715e-06
3.21342e-06
3.24272e-06
3.27285e-06
3.3213e-06
3.38985e-06
3.45838e-06
3.50795e-06
3.5641e-06
3.68428e-06
3.79803e-06
3.63105e-06
3.18844e-06
2.7328e-06
2.60042e-06
2.68432e-06
2.79347e-06
2.89899e-06
3.0137e-06
3.12284e-06
3.21153e-06
3.27601e-06
3.32341e-06
3.3692e-06
3.4294e-06
3.50662e-06
3.58333e-06
3.64063e-06
3.69339e-06
3.7822e-06
3.84972e-06
3.67469e-06
3.2387e-06
2.78244e-06
2.60966e-06
2.64683e-06
2.7428e-06
2.85786e-06
2.98725e-06
3.11238e-06
3.21844e-06
3.30152e-06
3.36792e-06
3.43174e-06
3.5079e-06
3.59963e-06
3.69172e-06
3.76545e-06
3.82556e-06
3.89474e-06
3.91817e-06
3.71534e-06
3.26676e-06
2.737e-06
2.49707e-06
2.50718e-06
2.61435e-06
2.75883e-06
2.91651e-06
3.06626e-06
3.19488e-06
3.29987e-06
3.3881e-06
3.47322e-06
3.56929e-06
3.68044e-06
3.79565e-06
3.90011e-06
3.99146e-06
4.07236e-06
4.06382e-06
3.80071e-06
)
;

boundaryField
{
    movingWall
    {
        type            zeroGradient;
    }
    fixedWalls
    {
        type            zeroGradient;
    }
    left
    {
        type            cyclic;
    }
    right
    {
        type            cyclic;
    }
    frontAndBack
    {
        type            empty;
    }
}


// ************************************************************************* //
