/*--------------------------------*- C++ -*----------------------------------*\
  =========                 |
  \\      /  F ield         | OpenFOAM: The Open Source CFD Toolbox
   \\    /   O peration     | Website:  https://openfoam.org
    \\  /    A nd           | Version:  8
     \\/     M anipulation  |
\*---------------------------------------------------------------------------*/
FoamFile
{
    version     2.0;
    format      ascii;
    class       surfaceScalarField;
    location    "0.93";
    object      phi;
}
// * * * * * * * * * * * * * * * * * * * * * * * * * * * * * * * * * * * * * //

dimensions      [0 3 -1 0 0 0 0];

internalField   nonuniform List<scalar> 
760
(
1.24898e-06
1.07792e-12
1.24898e-06
2.6529e-12
1.24897e-06
2.72631e-12
1.24897e-06
2.36732e-12
1.24897e-06
1.88788e-12
1.24897e-06
1.49928e-12
1.24897e-06
1.17932e-12
1.24897e-06
9.11958e-13
1.24897e-06
6.79226e-13
1.24896e-06
4.5621e-13
1.24896e-06
2.18154e-13
1.24896e-06
-5.5666e-14
1.24896e-06
-3.84637e-13
1.24897e-06
-7.90845e-13
1.24897e-06
-1.30445e-12
1.24897e-06
-1.95512e-12
1.24897e-06
-2.75552e-12
1.24898e-06
-3.45772e-12
1.24898e-06
-3.40943e-12
-1.54309e-12
3.74695e-06
1.25186e-12
3.74695e-06
5.38356e-12
3.74694e-06
6.62753e-12
3.74694e-06
6.20053e-12
3.74694e-06
5.25813e-12
3.74693e-06
4.33858e-12
3.74693e-06
3.52537e-12
3.74693e-06
2.80266e-12
3.74693e-06
2.12643e-12
3.74693e-06
1.44812e-12
3.74693e-06
7.23489e-13
3.74693e-06
-8.7752e-14
3.74693e-06
-1.02874e-12
3.74693e-06
-2.15312e-12
3.74693e-06
-3.52027e-12
3.74694e-06
-5.16201e-12
3.74694e-06
-6.99714e-12
3.74694e-06
-8.44383e-12
3.74695e-06
-8.00325e-12
-4.29016e-12
6.24499e-06
6.56136e-13
6.24499e-06
6.74283e-12
6.24499e-06
9.35285e-12
6.24498e-06
9.36785e-12
6.24498e-06
8.36216e-12
6.24498e-06
7.14739e-12
6.24498e-06
5.95332e-12
6.24497e-06
4.81869e-12
6.24497e-06
3.71116e-12
6.24497e-06
2.57734e-12
6.24497e-06
1.36145e-12
6.24497e-06
8.57875e-15
6.24497e-06
-1.53996e-12
6.24497e-06
-3.35115e-12
6.24497e-06
-5.4861e-12
6.24498e-06
-7.94449e-12
6.24498e-06
-1.05323e-11
6.24498e-06
-1.24359e-11
6.24499e-06
-1.18033e-11
-6.96654e-12
8.74315e-06
-5.41255e-13
8.74315e-06
6.8735e-12
8.74315e-06
1.06207e-11
8.74315e-06
1.12894e-11
8.74315e-06
1.05235e-11
8.74314e-06
9.28429e-12
8.74314e-06
7.91413e-12
8.74314e-06
6.51749e-12
8.74314e-06
5.095e-12
8.74314e-06
3.60587e-12
8.74314e-06
1.99622e-12
8.74314e-06
2.09001e-13
8.74314e-06
-1.81528e-12
8.74314e-06
-4.13818e-12
8.74314e-06
-6.80317e-12
8.74314e-06
-9.76913e-12
8.74314e-06
-1.27617e-11
8.74315e-06
-1.48821e-11
8.74315e-06
-1.42171e-11
-9.00096e-12
1.12415e-05
-1.83603e-12
1.12415e-05
6.05668e-12
1.12415e-05
1.05431e-11
1.12415e-05
1.18485e-11
1.12415e-05
1.14847e-11
1.12415e-05
1.04335e-11
1.12415e-05
9.09335e-12
1.12415e-05
7.61951e-12
1.12415e-05
6.0488e-12
1.12415e-05
4.36292e-12
1.12415e-05
2.52191e-12
1.12415e-05
4.79472e-13
1.12415e-05
-1.81231e-12
1.12415e-05
-4.39914e-12
1.12415e-05
-7.30254e-12
1.12415e-05
-1.04525e-11
1.12415e-05
-1.3545e-11
1.12415e-05
-1.57182e-11
1.12415e-05
-1.51915e-11
-1.02352e-11
1.374e-05
-2.99115e-12
1.374e-05
4.61274e-12
1.374e-05
9.3676e-12
1.374e-05
1.11505e-11
1.374e-05
1.12241e-11
1.374e-05
1.04905e-11
1.374e-05
9.3473e-12
1.374e-05
7.97419e-12
1.374e-05
6.43601e-12
1.374e-05
4.73879e-12
1.374e-05
2.86279e-12
1.374e-05
7.79866e-13
1.374e-05
-1.53951e-12
1.374e-05
-4.12163e-12
1.374e-05
-6.96986e-12
1.374e-05
-1.00048e-11
1.374e-05
-1.29418e-11
1.374e-05
-1.50436e-11
1.374e-05
-1.47914e-11
-1.05806e-11
1.62388e-05
-3.84416e-12
1.62388e-05
2.83143e-12
1.62388e-05
7.38636e-12
1.62388e-05
9.41685e-12
1.62388e-05
9.87359e-12
1.62388e-05
9.51044e-12
1.62388e-05
8.67809e-12
1.62388e-05
7.55293e-12
1.62388e-05
6.21402e-12
1.62388e-05
4.68713e-12
1.62388e-05
2.97288e-12
1.62388e-05
1.06326e-12
1.62388e-05
-1.05127e-12
1.62388e-05
-3.37864e-12
1.62388e-05
-5.91072e-12
1.62388e-05
-8.57667e-12
1.62388e-05
-1.11474e-11
1.62388e-05
-1.30683e-11
1.62388e-05
-1.31682e-11
-1.00416e-11
1.87379e-05
-4.29783e-12
1.87379e-05
9.44768e-13
1.87379e-05
4.88231e-12
1.87379e-05
6.9135e-12
1.87379e-05
7.64993e-12
1.87379e-05
7.65434e-12
1.87379e-05
7.19705e-12
1.87379e-05
6.42703e-12
1.87379e-05
5.42264e-12
1.87379e-05
4.22109e-12
1.87379e-05
2.83929e-12
1.87379e-05
1.28727e-12
1.87379e-05
-4.26244e-13
1.87379e-05
-2.29375e-12
1.87379e-05
-4.30122e-12
1.87379e-05
-6.39813e-12
1.87379e-05
-8.43308e-12
1.87379e-05
-1.00666e-11
1.87379e-05
-1.05315e-11
-8.69088e-12
2.12372e-05
-4.32007e-12
2.12372e-05
-8.77221e-13
2.12372e-05
2.10546e-12
2.12372e-05
3.91169e-12
2.12372e-05
4.81031e-12
2.12373e-05
5.14732e-12
2.12373e-05
5.09033e-12
2.12373e-05
4.74247e-12
2.12373e-05
4.16774e-12
2.12373e-05
3.40552e-12
2.12373e-05
2.48292e-12
2.12373e-05
1.4239e-12
2.12373e-05
2.5239e-13
2.12373e-05
-1.01074e-12
2.12373e-05
-2.34853e-12
2.12373e-05
-3.73526e-12
2.12372e-05
-5.10618e-12
2.12372e-05
-6.34978e-12
2.12372e-05
-7.1342e-12
-6.65805e-12
2.37369e-05
-3.93838e-12
2.37369e-05
-2.52104e-12
2.37369e-05
-7.33472e-13
2.37369e-05
6.70538e-13
2.37369e-05
1.62643e-12
2.37369e-05
2.24949e-12
2.37369e-05
2.59136e-12
2.37369e-05
2.6965e-12
2.37369e-05
2.60363e-12
2.37369e-05
2.34596e-12
2.37369e-05
1.95473e-12
2.37369e-05
1.4638e-12
2.37369e-05
9.10011e-13
2.37369e-05
3.26734e-13
2.37369e-05
-2.65267e-13
2.37369e-05
-8.63253e-13
2.37369e-05
-1.48675e-12
2.37369e-05
-2.24882e-12
2.37369e-05
-3.26207e-12
-4.12015e-12
2.62369e-05
-3.23029e-12
2.62369e-05
-3.92051e-12
2.62369e-05
-3.45958e-12
2.62369e-05
-2.56791e-12
2.62369e-05
-1.6284e-12
2.62369e-05
-7.62092e-13
2.62369e-05
-3.96451e-14
2.62369e-05
5.17341e-13
2.62369e-05
9.1523e-13
2.62369e-05
1.17519e-12
2.62369e-05
1.32829e-12
2.62369e-05
1.41572e-12
2.62369e-05
1.48625e-12
2.62369e-05
1.58678e-12
2.62369e-05
1.74562e-12
2.62369e-05
1.94979e-12
2.62369e-05
2.10706e-12
2.62369e-05
1.89799e-12
2.62369e-05
7.75958e-13
-1.29284e-12
2.87373e-05
-2.31148e-12
2.87373e-05
-5.04499e-12
2.87373e-05
-5.9241e-12
2.87373e-05
-5.57589e-12
2.87373e-05
-4.68381e-12
2.87373e-05
-3.60478e-12
2.87373e-05
-2.53173e-12
2.87373e-05
-1.55386e-12
2.87373e-05
-6.99341e-13
2.87373e-05
3.89095e-14
2.87373e-05
6.90029e-13
2.87373e-05
1.30216e-12
2.87373e-05
1.93626e-12
2.87373e-05
2.65487e-12
2.87373e-05
3.49942e-12
2.87373e-05
4.45236e-12
2.87373e-05
5.36815e-12
2.87373e-05
5.75279e-12
2.87373e-05
4.65615e-12
1.57882e-12
3.12379e-05
-1.32172e-12
3.12379e-05
-5.88518e-12
3.12379e-05
-7.99102e-12
3.12379e-05
-8.13286e-12
3.12379e-05
-7.27354e-12
3.12379e-05
-5.99924e-12
3.12379e-05
-4.61788e-12
3.12379e-05
-3.28065e-12
3.12379e-05
-2.04643e-12
3.12379e-05
-9.19998e-13
3.12379e-05
1.28045e-13
3.12379e-05
1.153e-12
3.12379e-05
2.229e-12
3.12379e-05
3.43622e-12
3.12379e-05
4.83489e-12
3.12379e-05
6.41634e-12
3.12379e-05
8.00745e-12
3.12379e-05
8.98486e-12
3.12379e-05
8.04813e-12
4.23056e-12
3.37388e-05
-4.07962e-13
3.37388e-05
-6.43585e-12
3.37388e-05
-9.52199e-12
3.37388e-05
-1.00178e-11
3.37388e-05
-9.1374e-12
3.37388e-05
-7.68059e-12
3.37388e-05
-6.05258e-12
3.37388e-05
-4.45185e-12
3.37388e-05
-2.95713e-12
3.37388e-05
-1.57792e-12
3.37388e-05
-2.81005e-13
3.37388e-05
9.97545e-13
3.37388e-05
2.34452e-12
3.37388e-05
3.8577e-12
3.37388e-05
5.62008e-12
3.37388e-05
7.64532e-12
3.37388e-05
9.76319e-12
3.37388e-05
1.12793e-11
3.37388e-05
1.06242e-11
6.39021e-12
3.62401e-05
2.9619e-13
3.62401e-05
-6.6731e-12
3.62401e-05
-1.03606e-11
3.62401e-05
-1.10048e-11
3.62401e-05
-1.00308e-11
3.62401e-05
-8.41866e-12
3.62401e-05
-6.63795e-12
3.62401e-05
-4.9087e-12
3.62401e-05
-3.31194e-12
3.62401e-05
-1.85149e-12
3.62401e-05
-4.86094e-13
3.62401e-05
8.56422e-13
3.62401e-05
2.27214e-12
3.62401e-05
3.87246e-12
3.62401e-05
5.7628e-12
3.62401e-05
7.98963e-12
3.62401e-05
1.04178e-11
3.62401e-05
1.23527e-11
3.62401e-05
1.20722e-11
7.7918e-12
3.87415e-05
6.94851e-13
3.87415e-05
-6.52485e-12
3.87415e-05
-1.03187e-11
3.87415e-05
-1.08707e-11
3.87415e-05
-9.75192e-12
3.87415e-05
-8.05693e-12
3.87415e-05
-6.26554e-12
3.87415e-05
-4.58341e-12
3.87415e-05
-3.0726e-12
3.87415e-05
-1.72108e-12
3.87415e-05
-4.77666e-13
3.87415e-05
7.33956e-13
3.87415e-05
2.01124e-12
3.87415e-05
3.46964e-12
3.87415e-05
5.22962e-12
3.87415e-05
7.37349e-12
3.87415e-05
9.82987e-12
3.87415e-05
1.19847e-11
3.87415e-05
1.21194e-11
8.19658e-12
4.12432e-05
7.57245e-13
4.12432e-05
-5.84121e-12
4.12432e-05
-9.1742e-12
4.12432e-05
-9.42624e-12
4.12432e-05
-8.19941e-12
4.12432e-05
-6.57865e-12
4.12432e-05
-4.97793e-12
4.12432e-05
-3.54941e-12
4.12432e-05
-2.3195e-12
4.12432e-05
-1.25635e-12
4.12432e-05
-3.03013e-13
4.12432e-05
6.11771e-13
4.12432e-05
1.57452e-12
4.12432e-05
2.68969e-12
4.12432e-05
4.076e-12
4.12432e-05
5.84021e-12
4.12432e-05
7.9901e-12
4.12432e-05
1.00755e-11
4.12432e-05
1.05816e-11
7.42928e-12
4.3745e-05
5.61404e-13
4.3745e-05
-4.3668e-12
4.3745e-05
-6.68885e-12
4.3745e-05
-6.5917e-12
4.3745e-05
-5.46862e-12
4.3745e-05
-4.19727e-12
4.3745e-05
-3.04043e-12
4.3745e-05
-2.07187e-12
4.3745e-05
-1.28433e-12
4.3745e-05
-6.36923e-13
4.3745e-05
-7.91946e-14
4.3745e-05
4.43107e-13
4.3745e-05
9.92164e-13
4.3745e-05
1.64329e-12
4.3745e-05
2.48605e-12
4.3745e-05
3.61885e-12
4.3745e-05
5.11397e-12
4.3745e-05
6.73988e-12
4.3745e-05
7.42913e-12
5.3981e-12
4.6247e-05
1.99294e-13
4.6247e-05
-2.04942e-12
4.6247e-05
-2.9436e-12
4.6247e-05
-2.72949e-12
4.6247e-05
-2.10868e-12
4.62469e-05
-1.51822e-12
4.62469e-05
-1.02707e-12
4.62469e-05
-6.45182e-13
4.62469e-05
-3.58692e-13
4.62469e-05
-1.43056e-13
4.62469e-05
2.8441e-14
4.62469e-05
1.83596e-13
4.62469e-05
3.51974e-13
4.62469e-05
5.65844e-13
4.62469e-05
8.56804e-13
4.6247e-05
1.26531e-12
4.6247e-05
1.86428e-12
4.6247e-05
2.62849e-12
4.6247e-05
3.15459e-12
2.42478e-12
4.8749e-05
4.8749e-05
4.8749e-05
4.8749e-05
4.8749e-05
4.8749e-05
4.8749e-05
4.8749e-05
4.8749e-05
4.8749e-05
4.8749e-05
4.8749e-05
4.8749e-05
4.8749e-05
4.8749e-05
4.8749e-05
4.8749e-05
4.8749e-05
4.8749e-05
)
;

boundaryField
{
    movingWall
    {
        type            calculated;
        value           uniform 0;
    }
    fixedWalls
    {
        type            calculated;
        value           uniform 0;
    }
    left
    {
        type            cyclic;
        value           nonuniform List<scalar> 
20
(
-3.87415e-05
-3.62401e-05
-3.37388e-05
-3.12379e-05
-2.87373e-05
-2.62369e-05
-2.37369e-05
-2.12372e-05
-1.87379e-05
-1.62388e-05
-1.374e-05
-1.12415e-05
-8.74315e-06
-6.24499e-06
-3.74695e-06
-1.24898e-06
-4.12432e-05
-4.3745e-05
-4.6247e-05
-4.8749e-05
)
;
    }
    right
    {
        type            cyclic;
        value           nonuniform List<scalar> 
20
(
3.87415e-05
3.62401e-05
3.37388e-05
3.12379e-05
2.87373e-05
2.62369e-05
2.37369e-05
2.12372e-05
1.87379e-05
1.62388e-05
1.374e-05
1.12415e-05
8.74315e-06
6.24499e-06
3.74695e-06
1.24898e-06
4.12432e-05
4.3745e-05
4.6247e-05
4.8749e-05
)
;
    }
    frontAndBack
    {
        type            empty;
        value           nonuniform List<scalar> 0();
    }
}


// ************************************************************************* //
