0 	-3.57148e-08
1.57135 	-0.000130344
3.1427 	5.1253e-05
4.71405 	-0.000292991
6.28539 	-0.00108783
7.85674 	-0.00190193
9.42809 	-0.00154974
10.9994 	-0.00115987
12.5708 	0.0168548
14.1421 	0.0502804
