0 	0 	0 	0
1.57135 	-0.00282147 	-0.00422389 	0
3.1427 	-0.0203486 	0.0144298 	0
4.71405 	-0.0321948 	0.0489322 	0
6.28539 	-0.0170885 	0.0749087 	0
7.85674 	0.0131306 	0.0654714 	0
9.42809 	0.0344835 	0.0348911 	0
10.9994 	0.0366949 	-0.0117668 	0
12.5708 	0.111682 	-0.0986936 	0
14.1421 	0.5 	0 	0
