0 	-5.70202e-09
1.57135 	-1.21793e-05
3.1427 	-6.32224e-05
4.71405 	-0.00019789
6.28539 	-0.000451469
7.85674 	-0.0011053
9.42809 	-0.00226365
10.9994 	-0.00608008
12.5708 	0.00646589
14.1421 	0.0357288
