/*--------------------------------*- C++ -*----------------------------------*\
  =========                 |
  \\      /  F ield         | OpenFOAM: The Open Source CFD Toolbox
   \\    /   O peration     | Website:  https://openfoam.org
    \\  /    A nd           | Version:  8
     \\/     M anipulation  |
\*---------------------------------------------------------------------------*/
FoamFile
{
    version     2.0;
    format      ascii;
    class       surfaceScalarField;
    location    "36";
    object      phi;
}
// * * * * * * * * * * * * * * * * * * * * * * * * * * * * * * * * * * * * * //

dimensions      [0 3 -1 0 0 0 0];

internalField   nonuniform List<scalar> 
880
(
-1.50894e-05
1.50894e-05
-3.1015e-05
1.59256e-05
-4.62866e-05
1.52717e-05
-6.05575e-05
1.42708e-05
-7.35247e-05
1.29673e-05
-8.49093e-05
1.13846e-05
-9.45053e-05
9.59605e-06
-0.000102048
7.5422e-06
-0.000107707
5.65919e-06
-0.000110682
2.97543e-06
-0.000112864
2.18227e-06
-2.63288e-07
-0.000112601
-1.65782e-05
3.16676e-05
-3.40355e-05
3.33829e-05
-5.0772e-05
3.20082e-05
-6.64079e-05
2.99067e-05
-8.0619e-05
2.71783e-05
-9.3117e-05
2.38826e-05
-0.0001037
2.01791e-05
-0.000112133
1.59751e-05
-0.000118622
1.21483e-05
-0.000122536
6.88918e-06
-0.000125763
5.4099e-06
-1.70639e-06
-0.00012432
-1.72919e-05
4.89595e-05
-3.54976e-05
5.15886e-05
-5.29378e-05
4.94484e-05
-6.92007e-05
4.61696e-05
-8.39275e-05
4.19051e-05
-9.67817e-05
3.67367e-05
-0.000107447
3.08445e-05
-0.000115685
2.42129e-05
-0.0001211
1.75632e-05
-0.000123833
9.62246e-06
-0.000122697
4.27391e-06
-5.55402e-06
-0.00011885
-1.83546e-05
6.73141e-05
-3.76796e-05
7.09136e-05
-5.61917e-05
6.79605e-05
-7.34564e-05
6.34344e-05
-8.91134e-05
5.75621e-05
-0.000102841
5.04645e-05
-0.000114375
4.23781e-05
-0.000123464
3.33018e-05
-0.00012966
2.37592e-05
-0.000132997
1.29598e-05
-0.000132016
3.29284e-06
-9.37873e-06
-0.000128191
-1.98159e-05
8.71301e-05
-4.06753e-05
9.17729e-05
-6.06461e-05
8.79313e-05
-7.92403e-05
8.20285e-05
-9.60677e-05
7.43895e-05
-0.000110735
6.51319e-05
-0.000122884
5.45265e-05
-0.000132242
4.26607e-05
-0.000138491
3.00075e-05
-0.000141763
1.62316e-05
-0.000141308
2.83832e-06
-1.29909e-05
-0.000137696
-2.17336e-05
0.000108864
-4.45985e-05
0.000114638
-6.64843e-05
0.000109817
-8.68352e-05
0.000102379
-0.000105278
9.28324e-05
-0.000121426
8.12799e-05
-0.000135055
6.81559e-05
-0.000145903
5.35078e-05
-0.000153494
3.75988e-05
-0.000157602
2.03394e-05
-0.000157129
2.36507e-06
-1.66696e-05
-0.00015345
-2.40962e-05
0.00013296
-4.9454e-05
0.000139996
-7.37212e-05
0.000134084
-9.62432e-05
0.000124901
-0.000116608
0.000113198
-0.000134336
9.90079e-05
-0.000149079
8.28983e-05
-0.00016054
6.49691e-05
-0.000168636
4.56951e-05
-0.000173417
2.51205e-05
-0.000174842
3.79027e-06
-1.93782e-05
-0.000172134
-2.71878e-05
0.000160148
-5.56745e-05
0.000168482
-8.2903e-05
0.000161313
-0.000107973
0.000149972
-0.000130735
0.000135959
-0.00015064
0.000118914
-0.00016772
9.99778e-05
-0.000181585
7.88345e-05
-0.000191813
5.59232e-05
-0.000197975
3.12827e-05
-0.000199266
5.08095e-06
-2.21115e-05
-0.000196533
-3.04888e-05
0.000190636
-6.25749e-05
0.000200569
-9.32221e-05
0.00019196
-0.000121453
0.000178202
-0.000147
0.000161506
-0.00016903
0.000140944
-0.000187262
0.000118209
-0.000201631
9.32031e-05
-0.000212328
6.66205e-05
-0.000219478
3.84326e-05
-0.000223429
9.03215e-06
-2.29761e-05
-0.000222564
-3.56534e-05
0.00022629
-7.24854e-05
0.000237401
-0.000107726
0.0002272
-0.000139229
0.000209705
-0.000167977
0.000190254
-0.000192812
0.000165779
-0.000214612
0.00014001
-0.000232476
0.000111067
-0.000246361
8.0505e-05
-0.000255795
4.7867e-05
-0.0002601
1.33369e-05
-2.36311e-05
-0.000259445
-3.95136e-05
0.000265803
-8.14934e-05
0.00027938
-0.000121133
0.00026684
-0.000157143
0.000245715
-0.000189471
0.000222582
-0.000216501
0.00019281
-0.000238925
0.000162433
-0.000256728
0.00012887
-0.000270547
9.43244e-05
-0.000280602
5.79215e-05
-0.000288261
2.0996e-05
-2.1473e-05
-0.000290419
-4.94158e-05
0.000315219
-9.82863e-05
0.000328251
-0.000145114
0.000313667
-0.000184749
0.000285351
-0.000221434
0.000259267
-0.000251554
0.00022293
-0.000278351
0.00018923
-0.000300193
0.000150712
-0.000318344
0.000112475
-0.000332058
7.16356e-05
-0.000341843
3.07807e-05
-1.79078e-05
-0.000345408
-5.04409e-05
0.00036566
-0.000109099
0.000386909
-0.000159964
0.000364532
-0.000208494
0.000333881
-0.000247615
0.000298388
-0.00028062
0.000255935
-0.00030705
0.00021566
-0.000327549
0.00017121
-0.000343977
0.000128904
-0.000356306
8.39647e-05
-0.000368258
4.27323e-05
-1.08287e-05
-0.000375337
-7.9059e-05
0.000444719
-0.000140442
0.000448292
-0.000205226
0.000429316
-0.000251388
0.000380043
-0.000295778
0.000342779
-0.000329512
0.000289669
-0.00035978
0.000245927
-0.000384175
0.000195606
-0.000406267
0.000150996
-0.000424592
0.00010229
-0.000442736
6.08758e-05
8.12721e-07
-0.000454377
-5.48397e-05
0.000499559
-0.000149366
0.000542818
-0.000218217
0.000498167
-0.000286925
0.000448751
-0.00033351
0.000389364
-0.000371604
0.000327764
-0.000397676
0.000271999
-0.000416954
0.000214884
-0.000432083
0.000166125
-0.000443743
0.00011395
-0.000457297
7.44295e-05
1.32155e-05
-0.0004697
-0.000161338
0.000660897
-0.000218743
0.000600223
-0.000301489
0.000580912
-0.000349684
0.000496946
-0.000394694
0.000434374
-0.000429384
0.000362454
-0.000457044
0.000299659
-0.000480719
0.000238559
-0.000502627
0.000188033
-0.000523816
0.000135139
-0.00055018
0.000100793
3.84356e-05
-0.0005754
-2.39992e-05
0.000684896
-0.000213085
0.000789309
-0.000326643
0.00069447
-0.000422837
0.00059314
-0.00047408
0.000485617
-0.000505291
0.000393665
-0.000520174
0.000314542
-0.000527803
0.000246188
-0.000532046
0.000192276
-0.000536297
0.00013939
-0.000542543
0.00010704
5.04138e-05
-0.000554521
-0.000236341
0.000921237
-0.000292307
0.000845275
-0.000389399
0.000791562
-0.000480546
0.000684288
-0.000512606
0.000517677
-0.000552566
0.000433626
-0.000566513
0.000328488
-0.000582154
0.000261829
-0.000593435
0.000203557
-0.000608776
0.00015473
-0.00063336
0.000131625
8.4947e-05
-0.000667894
-0.00108786
0.0020091
-0.00109196
0.000849376
-0.00113692
0.00083652
-0.00099859
0.000545958
-0.000900106
0.000419192
-0.000775062
0.000308582
-0.000679304
0.00023273
-0.000596545
0.00017907
-0.000529549
0.000136562
-0.000480603
0.000105784
-0.000431505
8.25264e-05
6.12645e-05
-0.000407822
0.0020091
0.00285847
0.00369499
0.00424095
0.00466014
0.00496873
0.00520146
0.00538053
0.00551709
0.00562287
0.0057054
0.00576666
-8.89792e-05
3.48111e-05
-5.84331e-05
-6.90288e-05
1.4478e-05
-3.44284e-05
-5.65677e-05
-3.22836e-06
-9.2327e-06
-4.47694e-05
-1.66956e-05
4.89725e-06
-3.37352e-05
-2.72873e-05
1.6253e-05
-2.23692e-05
-3.50258e-05
2.36598e-05
-1.08879e-05
-4.00614e-05
2.85802e-05
-3.95919e-05
2.8704e-05
-9.81026e-05
8.59344e-06
-7.7078e-05
-6.54653e-06
-6.34492e-05
-1.68571e-05
-5.044e-05
-2.97048e-05
-3.8214e-05
-3.95133e-05
-2.54622e-05
-4.77776e-05
-1.24197e-05
-5.31039e-05
-5.20116e-05
-0.000105544
-4.71199e-06
-9.23434e-05
-1.97473e-05
-7.82992e-05
-3.09013e-05
-6.37541e-05
-4.42499e-05
-4.84185e-05
-5.48488e-05
-3.23704e-05
-6.38257e-05
-1.57833e-05
-6.96911e-05
-6.77949e-05
-0.000115464
-1.74388e-05
-0.000102451
-3.27603e-05
-8.77917e-05
-4.55609e-05
-7.21951e-05
-5.98465e-05
-5.53013e-05
-7.17426e-05
-3.72008e-05
-8.19262e-05
-1.82181e-05
-8.86737e-05
-8.6013e-05
-0.000128706
-2.6429e-05
-0.000117265
-4.42009e-05
-0.000102611
-6.02148e-05
-8.55225e-05
-7.69353e-05
-6.61774e-05
-9.10877e-05
-4.47111e-05
-0.000103392
-2.19975e-05
-0.000111387
-0.00010801
-0.000144536
-3.53424e-05
-0.000132767
-5.59702e-05
-0.000117334
-7.56477e-05
-9.8622e-05
-9.56476e-05
-7.70363e-05
-0.000112673
-5.23449e-05
-0.000128084
-2.59246e-05
-0.000137808
-0.000133935
-0.000164782
-4.26943e-05
-0.000152964
-6.77884e-05
-0.000137082
-9.15294e-05
-0.000116064
-0.000116666
-9.18461e-05
-0.000136891
-6.25366e-05
-0.000157393
-3.13797e-05
-0.000168965
-0.000165315
-0.000189297
-4.99297e-05
-0.000177098
-7.99876e-05
-0.000160412
-0.000108216
-0.000137115
-0.000139963
-0.000109822
-0.000164184
-7.52867e-05
-0.000191929
-3.82293e-05
-0.000206022
-0.000203544
-0.000217208
-5.5286e-05
-0.000204743
-9.2453e-05
-0.00018863
-0.000124329
-0.000162258
-0.000166335
-0.000132831
-0.00019361
-9.12178e-05
-0.000233542
-4.76725e-05
-0.000249567
-0.000251217
-0.000254963
-5.97684e-05
-0.000243034
-0.000104381
-0.000226804
-0.000140559
-0.000198166
-0.000194973
-0.000164763
-0.000227014
-0.000114804
-0.000283501
-6.11025e-05
-0.000303268
-0.000312319
-0.000289948
-6.02394e-05
-0.000278502
-0.000115827
-0.000266091
-0.00015297
-0.000234871
-0.000226194
-0.000202725
-0.00025916
-0.000142473
-0.000343753
-8.07497e-05
-0.000364992
-0.000393069
-0.000347779
-5.78683e-05
-0.000340147
-0.000123459
-0.000330444
-0.000162673
-0.000299507
-0.000257131
-0.000264012
-0.000294655
-0.000191314
-0.000416451
-0.000112097
-0.000444209
-0.000505165
-0.000384099
-4.91055e-05
-0.000378764
-0.000128795
-0.000379919
-0.000161518
-0.00035132
-0.000285729
-0.000329658
-0.000316317
-0.000246692
-0.000499418
-0.000164125
-0.000526776
-0.00066929
-0.000470922
-3.25603e-05
-0.000477603
-0.000122114
-0.000489977
-0.000149144
-0.000472132
-0.000303574
-0.000455466
-0.000332983
-0.00036177
-0.000593113
-0.00025531
-0.000633236
-0.0009246
-0.000490829
-1.14315e-05
-0.000500554
-0.000112389
-0.000532861
-0.000116837
-0.000532846
-0.000303589
-0.000567127
-0.000298702
-0.000492462
-0.000667779
-0.000430569
-0.000695129
-0.00135517
-0.00061523
2.83985e-05
-0.000653243
-7.43758e-05
-0.000716966
-5.31147e-05
-0.000757866
-0.000262689
-0.000830706
-0.000225862
-0.000788256
-0.000710228
-0.000736142
-0.000747243
-0.00209131
-0.000576863
5.07407e-05
-0.000605788
-4.54515e-05
-0.000676446
1.75431e-05
-0.000752199
-0.000186935
-0.000938934
-3.91271e-05
-0.00103443
-0.000614734
-0.00109798
-0.000683694
-0.00318929
-0.00072796
0.000110807
-0.000810457
3.70454e-05
-0.000943168
0.000150254
-0.0011114
-1.87072e-05
-0.00128985
0.00013933
-0.00139449
-0.000510095
-0.00101173
-0.00106646
-0.00420101
-0.000352204
5.51884e-05
-0.000341989
2.68307e-05
-0.000230074
3.83391e-05
-0.000207636
-4.11452e-05
5.33416e-05
-0.000121648
0.000105464
-0.000562217
0.000444316
-0.00140531
-0.0037567
0.00582185
0.00584868
0.00588702
0.00584588
0.00572423
0.00516201
0.0037567
-1.48072e-06
1.48072e-06
-2.78226e-06
1.30154e-06
-3.57071e-06
7.8845e-07
-3.7826e-06
2.11895e-07
-3.39943e-06
-3.83171e-07
-2.52611e-06
-8.73319e-07
-1.2988e-06
-1.22732e-06
-1.2988e-06
-1.70573e-06
3.18646e-06
-3.186e-06
2.7818e-06
-4.05807e-06
1.66052e-06
-4.2407e-06
3.94524e-07
-3.78301e-06
-8.40858e-07
-2.80239e-06
-1.85394e-06
-1.43892e-06
-2.5908e-06
-2.73771e-06
-2.58339e-06
5.76984e-06
-4.71894e-06
4.91735e-06
-5.89285e-06
2.83443e-06
-6.13996e-06
6.41633e-07
-5.42913e-06
-1.55169e-06
-3.9848e-06
-3.29826e-06
-2.0366e-06
-4.539e-06
-4.77431e-06
-3.08386e-06
8.8537e-06
-5.5736e-06
7.40708e-06
-6.8493e-06
4.11014e-06
-6.93377e-06
7.26098e-07
-6.043e-06
-2.44246e-06
-4.40889e-06
-4.93237e-06
-2.24304e-06
-6.70485e-06
-7.01735e-06
-5.92036e-06
1.47741e-05
-1.013e-05
1.16167e-05
-1.18563e-05
5.83644e-06
-1.18036e-05
6.73398e-07
-1.00517e-05
-4.19431e-06
-7.19757e-06
-7.78655e-06
-3.62826e-06
-1.02742e-05
-1.06456e-05
-7.17058e-06
2.19446e-05
-1.21449e-05
1.65911e-05
-1.39907e-05
7.68222e-06
-1.35315e-05
2.14221e-07
-1.14054e-05
-6.32046e-06
-8.13929e-06
-1.10527e-05
-4.08925e-06
-1.43242e-05
-1.47349e-05
-1.63701e-05
3.83147e-05
-2.49454e-05
2.51664e-05
-2.5866e-05
8.60277e-06
-2.37242e-05
-1.9275e-06
-1.91161e-05
-1.09286e-05
-1.32109e-05
-1.69578e-05
-6.54141e-06
-2.09937e-05
-2.12763e-05
-2.01184e-05
-2.93804e-05
-3.00103e-05
-2.70405e-05
-2.17161e-05
-1.50142e-05
-7.4277e-06
)
;

boundaryField
{
    movingWall
    {
        type            calculated;
        value           uniform 0;
    }
    fixedWalls
    {
        type            calculated;
        value           uniform 0;
    }
    frontAndBack
    {
        type            empty;
        value           nonuniform List<scalar> 0();
    }
}


// ************************************************************************* //
