/*--------------------------------*- C++ -*----------------------------------*\
  =========                 |
  \\      /  F ield         | OpenFOAM: The Open Source CFD Toolbox
   \\    /   O peration     | Website:  https://openfoam.org
    \\  /    A nd           | Version:  8
     \\/     M anipulation  |
\*---------------------------------------------------------------------------*/
FoamFile
{
    version     2.0;
    format      ascii;
    class       volScalarField;
    location    "1.52";
    object      p;
}
// * * * * * * * * * * * * * * * * * * * * * * * * * * * * * * * * * * * * * //

dimensions      [0 2 -2 0 0 0 0];

internalField   nonuniform List<scalar> 
400
(
1.85254e-15
1.72576e-15
-2.10821e-15
-5.76437e-15
-7.41325e-15
-7.93525e-15
-7.59922e-15
-7.0437e-15
-6.3731e-15
-6.13813e-15
-6.17213e-15
-6.71492e-15
-7.61932e-15
-8.61524e-15
-9.61697e-15
-9.96164e-15
-9.51112e-15
-7.54289e-15
-3.84892e-15
6.33792e-16
-1.3513e-15
-2.79474e-15
-5.90185e-15
-8.4037e-15
-9.92858e-15
-1.03059e-14
-1.03392e-14
-9.50625e-15
-8.99186e-15
-8.28682e-15
-7.99688e-15
-7.89716e-15
-8.06529e-15
-8.5045e-15
-8.74636e-15
-9.04619e-15
-8.35355e-15
-7.29488e-15
-4.9427e-15
-2.53341e-15
-7.60024e-15
-8.94564e-15
-1.06789e-14
-1.24024e-14
-1.31625e-14
-1.35832e-14
-1.29782e-14
-1.23213e-14
-1.08922e-14
-9.9762e-15
-8.88248e-15
-8.16572e-15
-7.89017e-15
-7.72447e-15
-8.028e-15
-7.8595e-15
-8.13195e-15
-7.55817e-15
-7.45248e-15
-7.12374e-15
-1.34122e-14
-1.46017e-14
-1.55745e-14
-1.63647e-14
-1.71542e-14
-1.64837e-14
-1.58752e-14
-1.38822e-14
-1.24226e-14
-1.04154e-14
-9.35386e-15
-7.97174e-15
-7.24418e-15
-7.02652e-15
-6.97701e-15
-7.7498e-15
-8.26487e-15
-9.45153e-15
-1.01778e-14
-1.20608e-14
-1.79463e-14
-1.89036e-14
-1.92465e-14
-1.98724e-14
-1.9643e-14
-1.90677e-14
-1.70832e-14
-1.54244e-14
-1.26563e-14
-1.08673e-14
-8.92676e-15
-7.7187e-15
-6.88136e-15
-6.30418e-15
-7.11776e-15
-7.74576e-15
-9.74586e-15
-1.1347e-14
-1.39284e-14
-1.58014e-14
-2.07881e-14
-2.17102e-14
-2.18372e-14
-2.16221e-14
-2.10428e-14
-1.93967e-14
-1.77484e-14
-1.46482e-14
-1.27618e-14
-1.01945e-14
-8.85239e-15
-7.40347e-15
-6.92058e-15
-6.98075e-15
-7.7179e-15
-9.5497e-15
-1.15171e-14
-1.4323e-14
-1.64152e-14
-1.92701e-14
-2.2786e-14
-2.30808e-14
-2.29091e-14
-2.19902e-14
-2.03655e-14
-1.89142e-14
-1.62844e-14
-1.41215e-14
-1.11779e-14
-1.00012e-14
-8.44719e-15
-7.84763e-15
-7.56481e-15
-8.09499e-15
-9.91373e-15
-1.14885e-14
-1.43983e-14
-1.64527e-14
-1.94425e-14
-2.11958e-14
-2.31993e-14
-2.36114e-14
-2.25787e-14
-2.10091e-14
-1.91539e-14
-1.65702e-14
-1.48135e-14
-1.21684e-14
-1.0815e-14
-9.13937e-15
-8.84649e-15
-8.42453e-15
-9.06793e-15
-1.07674e-14
-1.22654e-14
-1.44987e-14
-1.66603e-14
-1.95312e-14
-2.09294e-14
-2.27087e-14
-2.36911e-14
-2.28844e-14
-2.15868e-14
-1.92934e-14
-1.69244e-14
-1.49861e-14
-1.29682e-14
-1.17346e-14
-9.70719e-15
-9.44691e-15
-8.81776e-15
-1.01236e-14
-1.13171e-14
-1.35594e-14
-1.55941e-14
-1.72511e-14
-1.97849e-14
-2.13936e-14
-2.3216e-14
-2.32065e-14
-2.31703e-14
-2.23755e-14
-2.00664e-14
-1.76216e-14
-1.53949e-14
-1.37518e-14
-1.25087e-14
-1.06801e-14
-1.02959e-14
-9.71772e-15
-1.06386e-14
-1.15968e-14
-1.35808e-14
-1.60424e-14
-1.85916e-14
-2.03117e-14
-2.16995e-14
-2.3583e-14
-2.38334e-14
-2.43621e-14
-2.34044e-14
-2.12428e-14
-1.93658e-14
-1.64306e-14
-1.44815e-14
-1.36386e-14
-1.2144e-14
-1.14078e-14
-1.0903e-14
-1.14382e-14
-1.2067e-14
-1.34565e-14
-1.55031e-14
-1.82262e-14
-2.07637e-14
-2.24015e-14
-2.37538e-14
-2.39598e-14
-2.41936e-14
-2.37822e-14
-2.25423e-14
-2.0909e-14
-1.89511e-14
-1.63223e-14
-1.4651e-14
-1.42993e-14
-1.30949e-14
-1.24937e-14
-1.2598e-14
-1.25936e-14
-1.4108e-14
-1.51445e-14
-1.71365e-14
-1.94105e-14
-2.18178e-14
-2.36051e-14
-2.4292e-14
-2.46552e-14
-2.37386e-14
-2.37447e-14
-2.1535e-14
-2.03872e-14
-1.90688e-14
-1.64971e-14
-1.56542e-14
-1.54349e-14
-1.50614e-14
-1.46862e-14
-1.37359e-14
-1.46117e-14
-1.51389e-14
-1.68965e-14
-1.81865e-14
-2.0222e-14
-2.26076e-14
-2.38572e-14
-2.40055e-14
-2.44296e-14
-2.394e-14
-2.2036e-14
-2.11745e-14
-2.04793e-14
-1.95357e-14
-1.78186e-14
-1.68836e-14
-1.70646e-14
-1.62844e-14
-1.61092e-14
-1.58387e-14
-1.58287e-14
-1.70168e-14
-1.81544e-14
-1.97809e-14
-2.05462e-14
-2.24022e-14
-2.3052e-14
-2.30415e-14
-2.31877e-14
-2.27575e-14
-2.23801e-14
-2.14556e-14
-2.08986e-14
-2.04415e-14
-1.88915e-14
-1.87085e-14
-1.85043e-14
-1.80959e-14
-1.82747e-14
-1.74818e-14
-1.74262e-14
-1.77286e-14
-1.95641e-14
-2.05165e-14
-2.1636e-14
-2.23822e-14
-2.23183e-14
-2.22734e-14
-2.25411e-14
-2.19495e-14
-2.12483e-14
-2.13492e-14
-2.15675e-14
-2.07399e-14
-2.04562e-14
-2.00743e-14
-1.98509e-14
-1.84723e-14
-1.88925e-14
-1.90171e-14
-1.85248e-14
-1.91098e-14
-2.0003e-14
-2.18457e-14
-2.2309e-14
-2.3015e-14
-2.25421e-14
-2.27893e-14
-2.28502e-14
-2.2275e-14
-2.1512e-14
-2.20135e-14
-2.20642e-14
-2.14604e-14
-2.10286e-14
-2.07668e-14
-1.90047e-14
-1.85215e-14
-1.86636e-14
-2.04042e-14
-2.02401e-14
-1.96023e-14
-2.12725e-14
-2.25029e-14
-2.36709e-14
-2.35004e-14
-2.38625e-14
-2.41059e-14
-2.38144e-14
-2.29724e-14
-2.23276e-14
-2.2313e-14
-2.22831e-14
-2.14983e-14
-2.06826e-14
-1.98559e-14
-1.90006e-14
-1.78987e-14
-1.93347e-14
-2.09176e-14
-2.08804e-14
-2.10712e-14
-2.18186e-14
-2.34608e-14
-2.46692e-14
-2.48546e-14
-2.50989e-14
-2.56097e-14
-2.49344e-14
-2.41098e-14
-2.28125e-14
-2.32948e-14
-2.25561e-14
-2.1739e-14
-1.9561e-14
-1.81439e-14
-1.72552e-14
-1.69486e-14
-1.7896e-14
-2.0872e-14
-2.11177e-14
-2.12317e-14
-2.29288e-14
-2.40574e-14
-2.59661e-14
-2.63669e-14
-2.64028e-14
-2.62857e-14
-2.61157e-14
-2.50313e-14
-2.36516e-14
-2.35288e-14
-2.25973e-14
-2.17118e-14
-1.93729e-14
-1.68237e-14
-1.56451e-14
-1.55129e-14
-1.6622e-14
-1.91534e-14
-2.11871e-14
-2.18752e-14
-2.32826e-14
-2.50853e-14
-2.6614e-14
-2.74436e-14
-2.80536e-14
-2.76626e-14
-2.73875e-14
-2.56878e-14
-2.47218e-14
)
;

boundaryField
{
    movingWall
    {
        type            zeroGradient;
    }
    fixedWalls
    {
        type            zeroGradient;
    }
    left
    {
        type            cyclic;
    }
    right
    {
        type            cyclic;
    }
    frontAndBack
    {
        type            empty;
    }
}


// ************************************************************************* //
