/*--------------------------------*- C++ -*----------------------------------*\
  =========                 |
  \\      /  F ield         | OpenFOAM: The Open Source CFD Toolbox
   \\    /   O peration     | Website:  https://openfoam.org
    \\  /    A nd           | Version:  8
     \\/     M anipulation  |
\*---------------------------------------------------------------------------*/
FoamFile
{
    version     2.0;
    format      ascii;
    class       volScalarField;
    location    "0.215";
    object      p;
}
// * * * * * * * * * * * * * * * * * * * * * * * * * * * * * * * * * * * * * //

dimensions      [0 2 -2 0 0 0 0];

internalField   nonuniform List<scalar> 
400
(
2.24726e-07
-0.00582721
-0.0129623
-0.0184116
-0.020427
-0.0182321
-0.0117676
-0.00147844
0.0118406
0.0271499
0.0432424
0.0588185
0.072572
0.0833006
0.0900449
0.0922602
0.0900212
0.0842421
0.0768818
0.0710703
0.0057743
-0.000222787
-0.00580609
-0.00954237
-0.010597
-0.00842968
-0.00296664
0.00547698
0.0163046
0.028712
0.0417484
0.0543831
0.0655824
0.0744054
0.0801159
0.0823125
0.0810757
0.0770555
0.0712772
0.0653231
0.0133248
0.00502659
-0.000999652
-0.0044253
-0.00527336
-0.00326318
0.00160366
0.00902891
0.0185029
0.0293494
0.0407646
0.051868
0.0617663
0.069634
0.0748051
0.0768772
0.0758425
0.0720889
0.065811
0.0575441
0.0201258
0.00868683
0.00121993
-0.0026722
-0.00372397
-0.00188587
0.00273151
0.00978517
0.018781
0.0290953
0.0399919
0.0506535
0.0602321
0.0679152
0.073003
0.0750024
0.0737684
0.069461
0.0616108
0.0501145
0.0244864
0.00976293
0.000583038
-0.00399128
-0.00530474
-0.00350844
0.00117462
0.00833509
0.0174629
0.02795
0.0390858
0.0500705
0.0600494
0.0681657
0.0736276
0.0758
0.074373
0.0692961
0.0595352
0.0445516
0.0251622
0.00714003
-0.00380852
-0.00906138
-0.0105145
-0.00850079
-0.00335645
0.00443064
0.0143151
0.0256811
0.0378159
0.0499053
0.06105
0.0703052
0.0767371
0.0795202
0.0781438
0.0723407
0.0605498
0.0419057
0.0210799
-0.000270716
-0.0129396
-0.0187123
-0.020031
-0.0174136
-0.0113168
-0.00231707
0.00899378
0.0219799
0.0359135
0.0499481
0.0631157
0.0743487
0.0825255
0.0865737
0.0857262
0.0794545
0.0656308
0.043087
0.0111333
-0.0136235
-0.0278777
-0.0338551
-0.0346028
-0.0308553
-0.0232093
-0.0123406
0.0011103
0.0164898
0.0330585
0.0499393
0.0660887
0.0802948
0.0912054
0.0974349
0.0978759
0.0916431
0.0759058
0.0491301
-0.00597081
-0.0342674
-0.0498693
-0.0555466
-0.0550868
-0.04951
-0.0395876
-0.0261063
-0.00974923
0.00883129
0.0289093
0.0496013
0.0698047
0.0881609
0.103053
0.112707
0.115556
0.110198
0.092842
0.0614221
-0.0318538
-0.063872
-0.0804122
-0.0850018
-0.0824138
-0.074071
-0.0609725
-0.0440271
-0.0239412
-0.00132625
0.0231561
0.0486709
0.0741045
0.09798
0.118403
0.133131
0.139994
0.136823
0.118446
0.0819406
-0.0686567
-0.104594
-0.121336
-0.123581
-0.117506
-0.105117
-0.0877075
-0.0663138
-0.0416246
-0.0141429
0.015618
0.0469648
0.0788661
0.109802
0.137631
0.159591
0.172731
0.173782
0.155523
0.113573
-0.119385
-0.159343
-0.174902
-0.172745
-0.161136
-0.142917
-0.119746
-0.0927636
-0.0625634
-0.0294335
0.00638693
0.0444863
0.0840664
0.123712
0.161144
0.193091
0.215672
0.224079
0.208051
0.160631
-0.188605
-0.232224
-0.243923
-0.233934
-0.213681
-0.187141
-0.156359
-0.122487
-0.0858831
-0.0464573
-0.00400001
0.0415521
0.0898537
0.139839
0.189326
0.234694
0.271077
0.291665
0.28174
0.22977
-0.283948
-0.329284
-0.331814
-0.308265
-0.274695
-0.236426
-0.195751
-0.153596
-0.109825
-0.0637303
-0.0144235
0.0388766
0.0965655
0.158285
0.22238
0.285292
0.341398
0.381574
0.384909
0.331825
-0.419291
-0.45965
-0.442333
-0.395777
-0.342116
-0.287727
-0.234603
-0.182917
-0.131595
-0.0789708
-0.0232003
0.0374877
0.104564
0.178846
0.259866
0.344973
0.428616
0.499697
0.529669
0.48538
-0.620506
-0.636724
-0.578661
-0.49418
-0.41123
-0.335648
-0.26777
-0.205966
-0.147524
-0.08937
-0.0284134
0.0383597
0.113816
0.200478
0.299979
0.412026
0.533028
0.651771
0.732764
0.722383
-0.935903
-0.878498
-0.741729
-0.597939
-0.474385
-0.372652
-0.28886
-0.217753
-0.153943
-0.0924525
-0.0287059
0.0417061
0.123272
0.220724
0.338929
0.482155
0.651994
0.841337
1.01526
1.09749
-1.47641
-1.20662
-0.920494
-0.691381
-0.5173
-0.387539
-0.290056
-0.21333
-0.148115
-0.0872057
-0.0245674
0.0454672
0.128946
0.233077
0.367106
0.542678
0.77129
1.05931
1.40328
1.73013
-2.53964
-1.63054
-1.04443
-0.710956
-0.495749
-0.352092
-0.254528
-0.183579
-0.126163
-0.0735869
-0.0192596
0.0427966
0.119221
0.21879
0.354817
0.547986
0.826392
1.23658
1.91167
2.92418
-4.36665
-2.04463
-0.973539
-0.563181
-0.357849
-0.240149
-0.170121
-0.123782
-0.0874773
-0.0535033
-0.0166451
0.0276714
0.0846185
0.16174
0.272419
0.442104
0.718221
1.22571
2.41103
4.84852
)
;

boundaryField
{
    movingWall
    {
        type            zeroGradient;
    }
    fixedWalls
    {
        type            zeroGradient;
    }
    frontAndBack
    {
        type            empty;
    }
}


// ************************************************************************* //
