/*--------------------------------*- C++ -*----------------------------------*\
  =========                 |
  \\      /  F ield         | OpenFOAM: The Open Source CFD Toolbox
   \\    /   O peration     | Website:  https://openfoam.org
    \\  /    A nd           | Version:  8
     \\/     M anipulation  |
\*---------------------------------------------------------------------------*/
FoamFile
{
    version     2.0;
    format      ascii;
    class       volScalarField;
    location    "0.861";
    object      T;
}
// * * * * * * * * * * * * * * * * * * * * * * * * * * * * * * * * * * * * * //

dimensions      [0 0 0 1 0 0 0];

internalField   nonuniform List<scalar> 
100
(
49.9776
4.81835
-4.89928
-1.23905
1.27776
0.843148
-0.402155
-1.13081
0.278693
0.48564
95.2623
49.9213
11.1823
-4.94583
-3.52846
0.74012
2.22119
1.07995
-1.80945
-0.967489
104.717
89.1618
49.6069
13.4196
-4.1387
-4.73836
-0.360086
1.87248
2.03138
0.0492719
101.545
104.428
87.8205
48.8777
13.9599
-3.47004
-5.19724
1.22116
0.610995
-0.0183007
98.5324
103.82
103.431
87.4724
49.4996
15.1721
-4.19616
-8.71224
2.95003
2.84936
99.2944
99.0115
105.309
102.516
85.408
49.7864
18.4335
-2.81709
-11.1322
-1.44051
100.116
98.2386
99.2207
107.383
102.756
82.4626
48.9095
18.8783
1.2715
-5.9904
101.114
99.0531
97.8901
98.6801
109.038
102.892
81.401
49.5612
13.7902
3.59525
100.065
101.242
99.3614
96.7987
98.7174
110.054
101.287
86.0073
48.4902
4.78172
99.5828
100.806
100.311
99.5984
97.2955
101.214
106.323
96.7794
94.7655
49.8707
)
;

boundaryField
{
    left
    {
        type            fixedValue;
        value           uniform 100;
    }
    right
    {
        type            zeroGradient;
    }
    up
    {
        type            zeroGradient;
    }
    down
    {
        type            fixedValue;
        value           uniform 0;
    }
    frontAndBack
    {
        type            empty;
    }
}


// ************************************************************************* //
