/*--------------------------------*- C++ -*----------------------------------*\
  =========                 |
  \\      /  F ield         | OpenFOAM: The Open Source CFD Toolbox
   \\    /   O peration     | Website:  https://openfoam.org
    \\  /    A nd           | Version:  8
     \\/     M anipulation  |
\*---------------------------------------------------------------------------*/
FoamFile
{
    version     2.0;
    format      ascii;
    class       volScalarField;
    location    "0.21";
    object      p;
}
// * * * * * * * * * * * * * * * * * * * * * * * * * * * * * * * * * * * * * //

dimensions      [0 2 -2 0 0 0 0];

internalField   nonuniform List<scalar> 
400
(
8.51149e-08
-0.00582725
-0.0129622
-0.0184114
-0.0204266
-0.0182318
-0.0117672
-0.00147818
0.0118407
0.0271499
0.0432423
0.0588181
0.0725714
0.0832999
0.090044
0.0922593
0.0900205
0.0842417
0.0768816
0.0710702
0.0057738
-0.000223088
-0.00580622
-0.00954241
-0.010597
-0.00842969
-0.00296663
0.00547701
0.0163047
0.028712
0.0417484
0.0543829
0.0655821
0.0744049
0.0801154
0.082312
0.0810753
0.0770553
0.0712771
0.0653232
0.0133239
0.00502602
-0.00100003
-0.00442557
-0.00527358
-0.00326336
0.00160357
0.0090289
0.0185029
0.0293494
0.0407647
0.051868
0.0617662
0.0696339
0.0748049
0.076877
0.0758423
0.0720888
0.0658112
0.0575445
0.0201247
0.00868605
0.00121937
-0.0026726
-0.00372426
-0.00188607
0.00273144
0.00978521
0.0187811
0.0290955
0.0399921
0.0506536
0.0602322
0.0679153
0.073003
0.0750023
0.0737684
0.0694611
0.0616112
0.0501153
0.0244852
0.00976209
0.000582419
-0.00399171
-0.00530498
-0.00350853
0.00117471
0.00833532
0.0174632
0.0279504
0.0390863
0.050071
0.0600498
0.068166
0.0736278
0.0758002
0.0743732
0.0692965
0.0595358
0.0445527
0.0251609
0.00713925
-0.00380902
-0.00906166
-0.0105145
-0.00850064
-0.00335609
0.00443116
0.0143158
0.0256818
0.0378167
0.0499061
0.0610507
0.0703058
0.0767376
0.0795207
0.0781443
0.0723413
0.0605507
0.041907
0.0210789
-0.00027124
-0.0129398
-0.0187123
-0.0200308
-0.0174131
-0.0113161
-0.00231621
0.00899479
0.021981
0.0359146
0.0499492
0.0631167
0.0743496
0.0825263
0.0865745
0.0857269
0.0794554
0.065632
0.0430885
0.0111329
-0.0136235
-0.0278775
-0.0338547
-0.0346022
-0.0308544
-0.0232082
-0.0123393
0.0011117
0.0164913
0.03306
0.0499408
0.06609
0.080296
0.0912065
0.097436
0.0978769
0.0916442
0.0759071
0.0491317
-0.00597056
-0.0342669
-0.0498686
-0.0555457
-0.0550857
-0.0495087
-0.0395861
-0.0261046
-0.00974745
0.00883313
0.0289111
0.0496031
0.0698063
0.0881624
0.103055
0.112708
0.115557
0.110199
0.0928434
0.0614236
-0.0318528
-0.0638709
-0.080411
-0.0850004
-0.0824123
-0.0740693
-0.0609706
-0.0440251
-0.0239391
-0.00132409
0.0231582
0.048673
0.0741065
0.0979818
0.118404
0.133133
0.139995
0.136824
0.118448
0.081942
-0.0686549
-0.104592
-0.121334
-0.123579
-0.117504
-0.105115
-0.0877054
-0.0663116
-0.0416223
-0.0141405
0.0156204
0.0469671
0.0788683
0.109804
0.137633
0.159593
0.172733
0.173783
0.155525
0.113574
-0.119382
-0.15934
-0.1749
-0.172743
-0.161134
-0.142915
-0.119744
-0.0927613
-0.062561
-0.029431
0.00638939
0.0444887
0.0840686
0.123714
0.161145
0.193093
0.215673
0.22408
0.208052
0.160631
-0.188603
-0.232221
-0.243921
-0.233932
-0.213679
-0.187139
-0.156357
-0.122485
-0.0858807
-0.0464548
-0.00399762
0.0415544
0.0898558
0.139841
0.189328
0.234695
0.271078
0.291665
0.281741
0.22977
-0.283945
-0.329281
-0.331812
-0.308263
-0.274693
-0.236424
-0.195749
-0.153594
-0.109823
-0.0637281
-0.0144213
0.0388786
0.0965673
0.158287
0.222382
0.285293
0.341399
0.381574
0.38491
0.331825
-0.419289
-0.459648
-0.442331
-0.395776
-0.342114
-0.287726
-0.234602
-0.182915
-0.131594
-0.0789689
-0.0231984
0.0374895
0.104565
0.178847
0.259867
0.344973
0.428616
0.499697
0.529669
0.485379
-0.620504
-0.636722
-0.57866
-0.494179
-0.411229
-0.335647
-0.267769
-0.205965
-0.147523
-0.0893685
-0.0284119
0.0383611
0.113817
0.200479
0.299979
0.412026
0.533028
0.651771
0.732764
0.722382
-0.9359
-0.878497
-0.741728
-0.597938
-0.474384
-0.372651
-0.28886
-0.217753
-0.153942
-0.0924514
-0.0287048
0.0417071
0.123273
0.220725
0.338929
0.482155
0.651994
0.841336
1.01526
1.09749
-1.47641
-1.20662
-0.920493
-0.691381
-0.5173
-0.387539
-0.290056
-0.21333
-0.148115
-0.0872051
-0.0245667
0.0454679
0.128946
0.233077
0.367106
0.542678
0.77129
1.05931
1.40328
1.73013
-2.53964
-1.63054
-1.04443
-0.710956
-0.495749
-0.352092
-0.254529
-0.183579
-0.126163
-0.0735865
-0.0192591
0.0427971
0.119222
0.21879
0.354817
0.547986
0.826391
1.23658
1.91167
2.92418
-4.36665
-2.04463
-0.973538
-0.563181
-0.357849
-0.24015
-0.170122
-0.123782
-0.0874773
-0.0535031
-0.0166447
0.027672
0.0846191
0.16174
0.27242
0.442105
0.718221
1.22571
2.41103
4.84852
)
;

boundaryField
{
    movingWall
    {
        type            zeroGradient;
    }
    fixedWalls
    {
        type            zeroGradient;
    }
    frontAndBack
    {
        type            empty;
    }
}


// ************************************************************************* //
