/*--------------------------------*- C++ -*----------------------------------*\
  =========                 |
  \\      /  F ield         | OpenFOAM: The Open Source CFD Toolbox
   \\    /   O peration     | Website:  https://openfoam.org
    \\  /    A nd           | Version:  8
     \\/     M anipulation  |
\*---------------------------------------------------------------------------*/
FoamFile
{
    version     2.0;
    format      ascii;
    class       volVectorField;
    location    "0.21";
    object      U;
}
// * * * * * * * * * * * * * * * * * * * * * * * * * * * * * * * * * * * * * //

dimensions      [0 1 -1 0 0 0 0];

internalField   nonuniform List<vector> 
400
(
(0.000253456 -0.000250116 0)
(0.000141304 0.000111574 0)
(-0.00117669 0.000564525 0)
(-0.00348023 0.000884767 0)
(-0.00637577 0.00104542 0)
(-0.00946685 0.00106145 0)
(-0.0123995 0.000957583 0)
(-0.0148807 0.000760229 0)
(-0.0166848 0.000494509 0)
(-0.0176533 0.000184513 0)
(-0.0176972 -0.000145222 0)
(-0.0168004 -0.000468234 0)
(-0.015026 -0.000755209 0)
(-0.0125218 -0.000974004 0)
(-0.00952394 -0.0010909 0)
(-0.00635343 -0.00107373 0)
(-0.00339991 -0.000897908 0)
(-0.00108631 -0.000556286 0)
(0.000196254 -9.04047e-05 0)
(0.000267744 0.00026226 0)
(-7.73641e-05 -0.000168919 0)
(-0.00161093 0.00164467 0)
(-0.00569105 0.00361639 0)
(-0.0117152 0.0050334 0)
(-0.0188864 0.00574155 0)
(-0.0263926 0.00575851 0)
(-0.0334589 0.00517016 0)
(-0.0394147 0.00409133 0)
(-0.0437307 0.00264689 0)
(-0.0460332 0.00096669 0)
(-0.0461156 -0.000812931 0)
(-0.0439483 -0.00254628 0)
(-0.0396895 -0.00407742 0)
(-0.0336929 -0.00524358 0)
(-0.0265058 -0.00588488 0)
(-0.0188492 -0.00586322 0)
(-0.0115634 -0.00509339 0)
(-0.00551181 -0.00358852 0)
(-0.00149274 -0.00155884 0)
(-4.25991e-05 0.000227268 0)
(-0.000528358 0.00109151 0)
(-0.00370999 0.00573474 0)
(-0.0105852 0.0102214 0)
(-0.019985 0.0134036 0)
(-0.0307547 0.0149417 0)
(-0.0418087 0.0148343 0)
(-0.0521031 0.0132517 0)
(-0.0607249 0.0104531 0)
(-0.0669484 0.00674005 0)
(-0.0702608 0.00243828 0)
(-0.0703789 -0.00210573 0)
(-0.0672637 -0.00652332 0)
(-0.0611337 -0.0104259 0)
(-0.0524726 -0.013417 0)
(-0.0420244 -0.0151189 0)
(-0.0307647 -0.0152211 0)
(-0.0198231 -0.0135521 0)
(-0.0103604 -0.0101761 0)
(-0.00354741 -0.0055496 0)
(-0.000476685 -0.000948678 0)
(-0.000927815 0.00347876 0)
(-0.00568937 0.0122168 0)
(-0.0152965 0.0199154 0)
(-0.0279075 0.0251899 0)
(-0.0419718 0.0275884 0)
(-0.0561611 0.0271291 0)
(-0.0692303 0.0241015 0)
(-0.0801007 0.0189482 0)
(-0.0879211 0.012192 0)
(-0.0920907 0.00440404 0)
(-0.0922755 -0.00380642 0)
(-0.0884236 -0.0117926 0)
(-0.0807809 -0.0188761 0)
(-0.0699022 -0.0243687 0)
(-0.0566525 -0.0276192 0)
(-0.0421823 -0.0280933 0)
(-0.0278482 -0.0254901 0)
(-0.015089 -0.0198858 0)
(-0.00550325 -0.0119242 0)
(-0.000861281 -0.00322393 0)
(-0.00127841 0.00687541 0)
(-0.00753342 0.0209468 0)
(-0.0197984 0.0325 0)
(-0.0355239 0.0400906 0)
(-0.0527276 0.0432768 0)
(-0.069838 0.0421798 0)
(-0.0854386 0.0372662 0)
(-0.0983324 0.0292043 0)
(-0.107589 0.0187719 0)
(-0.112557 0.00681221 0)
(-0.112866 -0.00577795 0)
(-0.108444 -0.0180485 0)
(-0.099535 -0.029002 0)
(-0.0867157 -0.0376209 0)
(-0.0709165 -0.0429319 0)
(-0.0534158 -0.0441156 0)
(-0.0357747 -0.0406666 0)
(-0.0197295 -0.0325828 0)
(-0.00736835 -0.0205844 0)
(-0.00120325 -0.0064961 0)
(-0.00160696 0.0112117 0)
(-0.00931522 0.0318642 0)
(-0.0242025 0.0479367 0)
(-0.0429911 0.058054 0)
(-0.0632405 0.0619182 0)
(-0.0831315 0.059863 0)
(-0.101098 0.0526126 0)
(-0.115863 0.0411138 0)
(-0.126457 0.0264297 0)
(-0.132205 0.00969086 0)
(-0.132717 -0.00791292 0)
(-0.127892 -0.0251236 0)
(-0.117938 -0.040612 0)
(-0.103409 -0.0530029 0)
(-0.0852487 -0.0609479 0)
(-0.0648201 -0.0632614 0)
(-0.0438749 -0.0591247 0)
(-0.0244716 -0.0483302 0)
(-0.00925185 -0.0315481 0)
(-0.00153727 -0.0107252 0)
(-0.00193951 0.0164715 0)
(-0.0111185 0.0449602 0)
(-0.0286439 0.0662134 0)
(-0.0504688 0.079036 0)
(-0.0736692 0.0834218 0)
(-0.0961834 0.0800509 0)
(-0.116327 0.0700043 0)
(-0.132787 0.0545696 0)
(-0.144601 0.0351224 0)
(-0.15111 0.0130821 0)
(-0.151918 -0.0100822 0)
(-0.146886 -0.0328217 0)
(-0.136154 -0.0534831 0)
(-0.1202 -0.0703159 0)
(-0.0999133 -0.0815418 0)
(-0.0766866 -0.0855086 0)
(-0.0524299 -0.0809413 0)
(-0.0295389 -0.0672584 0)
(-0.0112812 -0.0449268 0)
(-0.00189961 -0.0159468 0)
(-0.00229958 0.0226879 0)
(-0.0130228 0.0602835 0)
(-0.0332454 0.0873392 0)
(-0.0580705 0.102968 0)
(-0.0840614 0.107636 0)
(-0.108937 0.102533 0)
(-0.130947 0.0892202 0)
(-0.148811 0.0693926 0)
(-0.161641 0.0447606 0)
(-0.168842 0.0170168 0)
(-0.170037 -0.0121284 0)
(-0.165047 -0.0408803 0)
(-0.153907 -0.0672947 0)
(-0.13695 -0.0892483 0)
(-0.114926 -0.104484 0)
(-0.0891632 -0.110768 0)
(-0.0616619 -0.106185 0)
(-0.0351432 -0.0895568 0)
(-0.0135838 -0.0609338 0)
(-0.00232593 -0.0222715 0)
(-0.00271134 0.0299388 0)
(-0.0151065 0.0779365 0)
(-0.0381111 0.111328 0)
(-0.0658422 0.129717 0)
(-0.0943179 0.134284 0)
(-0.121088 0.126942 0)
(-0.14443 0.109875 0)
(-0.163197 0.0852612 0)
(-0.17667 0.0551547 0)
(-0.184389 0.0214835 0)
(-0.18604 -0.013869 0)
(-0.181405 -0.0489422 0)
(-0.170379 -0.0815713 0)
(-0.153067 -0.109296 0)
(-0.129959 -0.129349 0)
(-0.102177 -0.138796 0)
(-0.0716831 -0.134856 0)
(-0.0414632 -0.115443 0)
(-0.0162865 -0.0798772 0)
(-0.0028544 -0.0298825 0)
(-0.00320756 0.0383507 0)
(-0.0174657 0.0980678 0)
(-0.0433398 0.138159 0)
(-0.0737545 0.159011 0)
(-0.104157 0.162865 0)
(-0.132028 0.152639 0)
(-0.155821 0.131312 0)
(-0.174673 0.101618 0)
(-0.188162 0.0659443 0)
(-0.196061 0.0263858 0)
(-0.198179 -0.0151067 0)
(-0.194277 -0.0565301 0)
(-0.184075 -0.0956186 0)
(-0.16736 -0.129659 0)
(-0.14421 -0.15539 0)
(-0.115334 -0.169063 0)
(-0.0824428 -0.16677 0)
(-0.0486343 -0.145096 0)
(-0.0195279 -0.10214 0)
(-0.00353341 -0.0390394 0)
(-0.0038441 0.0481198 0)
(-0.0202468 0.120872 0)
(-0.0490481 0.167722 0)
(-0.0816889 0.190331 0)
(-0.113056 0.192521 0)
(-0.14075 0.178581 0)
(-0.163626 0.152483 0)
(-0.181314 0.11757 0)
(-0.193852 0.0765214 0)
(-0.201366 0.0314904 0)
(-0.203862 -0.015653 0)
(-0.201114 -0.0630352 0)
(-0.192652 -0.108468 0)
(-0.17786 -0.149141 0)
(-0.156226 -0.181381 0)
(-0.127781 -0.200571 0)
(-0.0936449 -0.201391 0)
(-0.0567333 -0.178545 0)
(-0.0234799 -0.128153 0)
(-0.00443553 -0.0500964 0)
(-0.00472573 0.0595629 0)
(-0.0236964 0.146597 0)
(-0.055387 0.199728 0)
(-0.0893832 0.222758 0)
(-0.120131 0.221858 0)
(-0.145688 0.203155 0)
(-0.165644 0.171812 0)
(-0.180386 0.131789 0)
(-0.190598 0.0859567 0)
(-0.19688 0.0363724 0)
(-0.199518 -0.0153652 0)
(-0.198351 -0.0677287 0)
(-0.192731 -0.118845 0)
(-0.181586 -0.16605 0)
(-0.163654 -0.205456 0)
(-0.137973 -0.231627 0)
(-0.1046 -0.237593 0)
(-0.0657359 -0.215497 0)
(-0.0283786 -0.158348 0)
(-0.00568223 -0.0635443 0)
(-0.00605212 0.0732212 0)
(-0.0282284 0.175545 0)
(-0.0625149 0.233545 0)
(-0.0962672 0.254717 0)
(-0.123871 0.2487 0)
(-0.144416 0.223997 0)
(-0.158692 0.187081 0)
(-0.168131 0.142442 0)
(-0.174227 0.0929566 0)
(-0.178145 0.0403751 0)
(-0.180511 -0.0141939 0)
(-0.18129 -0.0698085 0)
(-0.179718 -0.125191 0)
(-0.174289 -0.178155 0)
(-0.16291 -0.224944 0)
(-0.143328 -0.259557 0)
(-0.113945 -0.273299 0)
(-0.0753973 -0.255041 0)
(-0.0345579 -0.193072 0)
(-0.00748658 -0.080097 0)
(-0.0081927 0.0900408 0)
(-0.0344858 0.208006 0)
(-0.0704196 0.267863 0)
(-0.101036 0.283581 0)
(-0.121592 0.269785 0)
(-0.13313 0.237815 0)
(-0.138189 0.195382 0)
(-0.139492 0.147216 0)
(-0.139399 0.0958983 0)
(-0.139628 0.0426158 0)
(-0.141142 -0.0122294 0)
(-0.144086 -0.0684965 0)
(-0.147697 -0.125777 0)
(-0.150194 -0.182748 0)
(-0.14874 -0.236299 0)
(-0.139658 -0.280421 0)
(-0.119105 -0.305 0)
(-0.0849416 -0.295137 0)
(-0.0424427 -0.232362 0)
(-0.0102164 -0.100831 0)
(-0.0117681 0.111632 0)
(-0.0432629 0.243951 0)
(-0.0783048 0.300018 0)
(-0.100641 0.305073 0)
(-0.108369 0.280439 0)
(-0.105754 0.240362 0)
(-0.0975569 0.193263 0)
(-0.087802 0.143535 0)
(-0.0795347 0.0930267 0)
(-0.0748203 0.0420916 0)
(-0.0748378 -0.0097262 0)
(-0.079924 -0.0632029 0)
(-0.0894933 -0.118977 0)
(-0.101815 -0.17694 0)
(-0.113708 -0.235265 0)
(-0.120322 -0.288861 0)
(-0.115274 -0.327176 0)
(-0.0922729 -0.331777 0)
(-0.0523182 -0.275391 0)
(-0.0144308 -0.127342 0)
(-0.0175499 0.140657 0)
(-0.0547673 0.282139 0)
(-0.082793 0.324707 0)
(-0.088092 0.31246 0)
(-0.0751253 0.274441 0)
(-0.0526128 0.226755 0)
(-0.0274849 0.177275 0)
(-0.00454484 0.129124 0)
(0.0130658 0.0829057 0)
(0.0234055 0.0379442 0)
(0.0253641 -0.00707178 0)
(0.0184744 -0.0537527 0)
(0.00294948 -0.103742 0)
(-0.0200234 -0.158308 0)
(-0.0477077 -0.217488 0)
(-0.0750014 -0.278346 0)
(-0.093558 -0.331776 0)
(-0.0920702 -0.35767 0)
(-0.0632831 -0.319285 0)
(-0.0206341 -0.16197 0)
(-0.0254501 0.18171 0)
(-0.0657766 0.317768 0)
(-0.0733382 0.331356 0)
(-0.0480863 0.295392 0)
(-0.00559206 0.244202 0)
(0.0412001 0.19237 0)
(0.0846303 0.145038 0)
(0.12051 0.102964 0)
(0.146673 0.0651331 0)
(0.162017 0.0298895 0)
(0.165911 -0.00467052 0)
(0.157906 -0.0406247 0)
(0.137705 -0.0802404 0)
(0.105416 -0.12591 0)
(0.0622424 -0.179717 0)
(0.0117906 -0.242011 0)
(-0.0378403 -0.307868 0)
(-0.0716853 -0.360135 0)
(-0.0700579 -0.356603 0)
(-0.0279127 -0.208373 0)
(-0.0296491 0.239176 0)
(-0.0608423 0.335766 0)
(-0.0219455 0.3005 0)
(0.0505357 0.240123 0)
(0.127563 0.182944 0)
(0.196994 0.135384 0)
(0.254319 0.097394 0)
(0.29823 0.0668471 0)
(0.328802 0.0413527 0)
(0.346443 0.0187776 0)
(0.351352 -0.00279356 0)
(0.343279 -0.0252631 0)
(0.321447 -0.0507844 0)
(0.284624 -0.0820439 0)
(0.231556 -0.122441 0)
(0.162169 -0.175664 0)
(0.0798925 -0.243427 0)
(-0.00319444 -0.319132 0)
(-0.0546713 -0.36861 0)
(-0.0284597 -0.267617 0)
(0.00808322 0.281862 0)
(0.019783 0.294972 0)
(0.139065 0.210972 0)
(0.264457 0.143475 0)
(0.364362 0.0971839 0)
(0.440356 0.0657753 0)
(0.496732 0.0442356 0)
(0.536861 0.0288845 0)
(0.563432 0.0171979 0)
(0.57829 0.00748447 0)
(0.582365 -0.00149382 0)
(0.57568 -0.0108444 0)
(0.557295 -0.0218458 0)
(0.525123 -0.0363334 0)
(0.475767 -0.0572578 0)
(0.40453 -0.0893823 0)
(0.305171 -0.139739 0)
(0.173414 -0.216385 0)
(0.0411711 -0.311654 0)
(0.0184301 -0.299995 0)
(0.299604 0.146091 0)
(0.396272 0.127503 0)
(0.55742 0.0760894 0)
(0.674487 0.043723 0)
(0.743887 0.0255717 0)
(0.787151 0.0152418 0)
(0.815482 0.00921201 0)
(0.833951 0.00550917 0)
(0.84538 0.00302705 0)
(0.851366 0.00114933 0)
(0.852661 -0.000499295 0)
(0.849377 -0.00221489 0)
(0.840995 -0.00433832 0)
(0.826137 -0.0074238 0)
(0.802075 -0.012532 0)
(0.763619 -0.0217726 0)
(0.699107 -0.0392827 0)
(0.583952 -0.0726599 0)
(0.415827 -0.127868 0)
(0.308819 -0.149468 0)
)
;

boundaryField
{
    movingWall
    {
        type            fixedValue;
        value           uniform (1 0 0);
    }
    fixedWalls
    {
        type            noSlip;
    }
    frontAndBack
    {
        type            empty;
    }
}


// ************************************************************************* //
