/*--------------------------------*- C++ -*----------------------------------*\
  =========                 |
  \\      /  F ield         | OpenFOAM: The Open Source CFD Toolbox
   \\    /   O peration     | Website:  https://openfoam.org
    \\  /    A nd           | Version:  8
     \\/     M anipulation  |
\*---------------------------------------------------------------------------*/
FoamFile
{
    version     2.0;
    format      ascii;
    class       volScalarField;
    location    "21.5";
    object      p;
}
// * * * * * * * * * * * * * * * * * * * * * * * * * * * * * * * * * * * * * //

dimensions      [0 2 -2 0 0 0 0];

internalField   nonuniform List<scalar> 
464
(
1.07765e-08
4.1546e-06
1.33135e-05
2.68599e-05
4.46836e-05
6.63292e-05
9.14622e-05
0.000119283
0.000150156
0.000180717
0.00021656
0.000244651
-4.16789e-06
4.19807e-08
9.36479e-06
2.31578e-05
4.13112e-05
6.33728e-05
8.90007e-05
0.000117416
0.000148969
0.000180404
0.000217281
0.000246955
-1.35394e-05
-9.16626e-06
5.27297e-07
1.4869e-05
3.37326e-05
5.66464e-05
8.31968e-05
0.000112649
0.000144773
0.00017773
0.00021315
0.000245477
-2.79755e-05
-2.33446e-05
-1.30736e-05
2.13027e-06
2.21302e-05
4.64491e-05
7.46389e-05
0.000106
0.00014021
0.000175637
0.000213586
0.000248726
-4.78901e-05
-4.29034e-05
-3.18404e-05
-1.54539e-05
6.08987e-06
3.22904e-05
6.26211e-05
9.63628e-05
0.000132907
0.000171118
0.000210681
0.000249762
-7.37058e-05
-6.82492e-05
-5.61575e-05
-3.82229e-05
-1.46623e-05
1.40173e-05
4.72207e-05
8.42401e-05
0.000124387
0.000166604
0.000210451
0.000253827
-0.000105908
-9.98722e-05
-8.65243e-05
-6.66752e-05
-4.06316e-05
-8.89013e-06
2.78357e-05
6.88146e-05
0.000113219
0.000160017
0.000208365
0.000257141
-0.000145583
-0.00013879
-0.000123882
-0.000101585
-7.24738e-05
-3.69445e-05
4.10679e-06
4.99676e-05
9.97029e-05
0.000152342
0.000207082
0.000262118
-0.000191876
-0.000184407
-0.000167923
-0.000143081
-0.000110583
-7.06712e-05
-2.45523e-05
2.70318e-05
8.2934e-05
0.000142088
0.000203253
0.000265964
-0.000251644
-0.000242519
-0.000223558
-0.000194304
-0.000157084
-0.000111323
-5.90389e-05
-5.16195e-07
6.29204e-05
0.000130709
0.000201659
0.000273483
-0.000312706
-0.00030328
-0.000282598
-0.000250559
-0.000209284
-0.000157989
-9.92972e-05
-3.33501e-05
3.79109e-05
0.000112957
0.000190771
0.00027171
-0.000402526
-0.000389227
-0.00036583
-0.000324765
-0.000277475
-0.000216156
-0.000148501
-7.23595e-05
9.76686e-06
9.8055e-05
0.000191194
0.000285623
-0.000479646
-0.000468365
-0.000442332
-0.00039939
-0.000346693
-0.000278651
-0.000203293
-0.000118144
-2.77086e-05
6.69929e-05
0.000164841
0.000268551
-0.000614483
-0.00059145
-0.000564991
-0.000502461
-0.000443691
-0.000357822
-0.000271445
-0.000171029
-6.47773e-05
4.90233e-05
0.000168994
0.000292626
-0.000709487
-0.000702502
-0.000667589
-0.000606834
-0.000537395
-0.000442605
-0.000344999
-0.00023307
-0.000119199
-1.36389e-07
0.000121619
0.000251665
-0.000917285
-0.000862457
-0.000842371
-0.000738033
-0.000667292
-0.000542642
-0.000432153
-0.000297652
-0.000163709
-2.13021e-05
0.000126006
0.000284575
-0.00103345
-0.00107845
-0.00100161
-0.000924355
-0.00080754
-0.000672209
-0.00053425
-0.000385905
-0.000240732
-9.17901e-05
5.28992e-05
0.000214221
-0.0013943
-0.00115501
-0.00122677
-0.00101268
-0.000940413
-0.000755342
-0.000616238
-0.000443418
-0.000281195
-0.000110954
5.74751e-05
0.000246503
-0.00154525
-0.00181128
-0.00153137
-0.00146908
-0.00119239
-0.00098171
-0.000770345
-0.000566272
-0.00037977
-0.000196438
-3.12114e-05
0.000160513
-0.00284314
-0.00161836
-0.00172296
-0.00142527
-0.00123656
-0.00100819
-0.000800382
-0.000594196
-0.000397972
-0.000206886
-2.75334e-05
0.000170187
0.000287045
0.000306653
0.000328612
0.000343056
0.000356281
0.000365398
0.000371856
0.000374687
0.000291379
0.000312531
0.000336446
0.000352448
0.000366983
0.000377187
0.000384359
0.000387523
0.000281134
0.000308669
0.000335617
0.000356835
0.000374986
0.000388372
0.000397543
0.000401707
0.000287096
0.00031757
0.000347224
0.000371106
0.000391465
0.000406745
0.000417177
0.000421934
0.0002887
0.000324272
0.000357338
0.000385874
0.0004099
0.000428323
0.000440882
0.000446696
0.000297092
0.000337215
0.000374587
0.000407332
0.000435003
0.000456549
0.000471314
0.000478243
0.000305372
0.000351393
0.00039432
0.000432725
0.000465255
0.000490983
0.000508528
0.000516925
0.00031684
0.000369615
0.000419171
0.000464283
0.00050267
0.000533837
0.000554921
0.000565396
0.000328437
0.00038931
0.000446563
0.00049956
0.000544345
0.000581993
0.000606847
0.000619917
0.00034564
0.000417073
0.000484968
0.000549952
0.000604683
0.000653282
0.000684315
0.000702085
0.000353077
0.000434605
0.000511149
0.000588208
0.000648511
0.00071033
0.000744127
0.000769137
0.000381771
0.00048089
0.00057364
0.000673507
0.000750387
0.000835371
0.000881171
0.0009176
0.000372196
0.000484246
0.00057857
0.000700571
0.000773294
0.000889655
0.000930644
0.000990737
0.000417262
0.000557855
0.000679069
0.000840837
0.000946888
0.00110979
0.00118074
0.00127078
0.000371484
0.000529816
0.000627728
0.000830971
0.000896386
0.00113484
0.00117138
0.00134443
0.000435116
0.000631972
0.000777188
0.0010413
0.00117867
0.00150896
0.00162957
0.00189551
0.000335227
0.000555102
0.000617117
0.000950711
0.000940704
0.00143133
0.00141259
0.00196098
0.000408064
0.000664568
0.000802622
0.00121027
0.00133753
0.00200383
0.00218799
0.00308587
0.000263387
0.000542865
0.000499292
0.000992698
0.00069841
0.00161074
0.0011772
0.00278901
0.000310424
0.000596978
0.000648221
0.00117449
0.00118345
0.00234777
0.00290727
0.00606406
0.000343482
0.000343914
0.000344796
0.000345878
0.000347057
0.000348087
0.000348873
0.000349246
0.000344132
0.000344584
0.000345495
0.000346627
0.000347816
0.000348864
0.000349653
0.000350029
0.000341065
0.000341784
0.000343219
0.000344884
0.000346704
0.000348241
0.000349411
0.000349956
0.000342908
0.000343724
0.00034531
0.000347197
0.000349109
0.000350761
0.000351981
0.000352557
0.000335329
0.000337074
0.000340213
0.000343555
0.000347075
0.000349903
0.000352016
0.000352981
0.00033844
0.000340399
0.000343904
0.00034771
0.000351458
0.000354552
0.000356808
0.000357848
0.000321886
0.000327191
0.000335049
0.000342192
0.000349243
0.00035455
0.000358393
0.000360114
0.000326327
0.000332062
0.000340694
0.00034866
0.000356252
0.000362095
0.000366282
0.000368163
)
;

boundaryField
{
    movingWall
    {
        type            zeroGradient;
    }
    fixedWalls
    {
        type            zeroGradient;
    }
    frontAndBack
    {
        type            empty;
    }
}


// ************************************************************************* //
