/*--------------------------------*- C++ -*----------------------------------*\
  =========                 |
  \\      /  F ield         | OpenFOAM: The Open Source CFD Toolbox
   \\    /   O peration     | Website:  https://openfoam.org
    \\  /    A nd           | Version:  8
     \\/     M anipulation  |
\*---------------------------------------------------------------------------*/
FoamFile
{
    version     2.0;
    format      ascii;
    class       surfaceScalarField;
    location    "21.5";
    object      phi;
}
// * * * * * * * * * * * * * * * * * * * * * * * * * * * * * * * * * * * * * //

dimensions      [0 3 -1 0 0 0 0];

internalField   nonuniform List<scalar> 
880
(
-1.03803e-05
1.03802e-05
-2.09681e-05
1.05878e-05
-3.10525e-05
1.00844e-05
-4.03929e-05
9.34037e-06
-4.87788e-05
8.38592e-06
-5.60286e-05
7.24981e-06
-6.20094e-05
5.9808e-06
-6.65949e-05
4.58553e-06
-6.9864e-05
3.26903e-06
-7.14675e-05
1.60356e-06
-7.24648e-05
9.97322e-07
-8.70143e-07
-7.15947e-05
-1.10839e-05
2.14641e-05
-2.23781e-05
2.1882e-05
-3.31301e-05
2.08364e-05
-4.30828e-05
1.92931e-05
-5.20162e-05
1.73193e-05
-5.97447e-05
1.49783e-05
-6.61364e-05
1.23725e-05
-7.10801e-05
9.52916e-06
-7.46702e-05
6.85916e-06
-7.66275e-05
3.5609e-06
-7.80501e-05
2.41994e-06
-1.90199e-06
-7.70183e-05
-1.16097e-05
3.30738e-05
-2.34327e-05
3.3705e-05
-3.46735e-05
3.20773e-05
-4.50534e-05
2.9673e-05
-5.43289e-05
2.65947e-05
-6.22872e-05
2.29366e-05
-6.87448e-05
1.88302e-05
-7.35595e-05
1.43438e-05
-7.65145e-05
9.81412e-06
-7.77361e-05
4.78254e-06
-7.6456e-05
1.13987e-06
-4.82361e-06
-7.35344e-05
-1.24159e-05
4.54897e-05
-2.50489e-05
4.6338e-05
-3.70432e-05
4.40716e-05
-4.80965e-05
4.07263e-05
-5.79585e-05
3.64567e-05
-6.64158e-05
3.13939e-05
-7.33025e-05
2.5717e-05
-7.84935e-05
1.95348e-05
-8.17755e-05
1.30961e-05
-8.32212e-05
6.22828e-06
-8.19932e-05
-8.81712e-08
-7.67052e-06
-7.91463e-05
-1.35397e-05
5.90294e-05
-2.72976e-05
6.0096e-05
-4.03331e-05
5.7107e-05
-5.23024e-05
5.26956e-05
-6.29385e-05
4.70927e-05
-7.20043e-05
4.04597e-05
-7.93052e-05
3.30179e-05
-8.46899e-05
2.49195e-05
-8.80059e-05
1.64122e-05
-8.92605e-05
7.48285e-06
-8.81199e-05
-1.22874e-06
-1.08414e-05
-8.4949e-05
-1.50276e-05
7.4057e-05
-3.02662e-05
7.53346e-05
-4.46694e-05
7.15102e-05
-5.78351e-05
6.58613e-05
-6.94947e-05
5.87523e-05
-7.93993e-05
5.03643e-05
-8.73835e-05
4.10021e-05
-9.33197e-05
3.08557e-05
-9.70868e-05
2.01793e-05
-9.86055e-05
9.00152e-06
-9.75149e-05
-2.31927e-06
-1.40387e-05
-9.43177e-05
-1.69336e-05
9.09907e-05
-3.4056e-05
9.24569e-05
-5.01913e-05
8.76455e-05
-6.48442e-05
8.05143e-05
-7.77592e-05
7.16673e-05
-8.8661e-05
6.12662e-05
-9.7414e-05
4.97551e-05
-0.000103898
3.73397e-05
-0.000108011
2.42924e-05
-0.000109748
1.07387e-05
-0.000109011
-3.05669e-06
-1.72804e-05
-0.000105769
-1.938e-05
0.000110371
-3.88683e-05
0.000111945
-5.71637e-05
0.000105941
-7.3602e-05
9.69525e-05
-8.80131e-05
8.60783e-05
-0.000100081
7.3334e-05
-0.000109744
5.94183e-05
-0.000116918
4.45137e-05
-0.000121568
2.89422e-05
-0.000123673
1.28436e-05
-0.000123058
-3.67145e-06
-2.04739e-05
-0.000119865
-2.23414e-05
0.000132712
-4.47257e-05
0.00013433
-6.56688e-05
0.000126884
-8.42765e-05
0.00011556
-0.000100474
0.000102276
-0.000113862
8.67223e-05
-0.000124517
7.00735e-05
-0.000132408
5.2404e-05
-0.00013757
3.41043e-05
-0.00014002
1.52944e-05
-0.000139829
-3.86301e-06
-2.35703e-05
-0.000136733
-2.66006e-05
0.000159313
-5.26051e-05
0.000160334
-7.69118e-05
0.000151191
-9.77516e-05
0.0001364
-0.000115825
0.000120349
-0.000130473
0.00010137
-0.000142097
8.16978e-05
-0.000150702
6.10086e-05
-0.000156499
3.99016e-05
-0.0001595
1.82949e-05
-0.000159467
-3.89519e-06
-2.63619e-05
-0.000156676
-3.08192e-05
0.000190132
-6.10547e-05
0.000190569
-8.91819e-05
0.000179318
-0.000112983
0.000160201
-0.000133481
0.000140847
-0.000149698
0.000117588
-0.000162416
9.44155e-05
-0.000171665
7.02578e-05
-0.000177719
4.5955e-05
-0.000180932
2.15083e-05
-0.000181673
-3.15391e-06
-2.88223e-05
-0.000179213
-3.95858e-05
0.000229718
-7.54464e-05
0.00022643
-0.000109014
0.000212885
-0.000134891
0.000186078
-0.000157206
0.000163162
-0.000173778
0.00013416
-0.000186865
0.000107502
-0.000196358
7.97512e-05
-0.000203202
5.27992e-05
-0.000207268
2.55739e-05
-0.000208232
-2.18973e-06
-3.02287e-05
-0.000206826
-4.46851e-05
0.000274403
-8.70061e-05
0.000268751
-0.000125834
0.000251714
-0.000155766
0.00021601
-0.000180998
0.000188394
-0.000199067
0.000152229
-0.000213025
0.00012146
-0.000222574
8.92997e-05
-0.000228688
5.89135e-05
-0.000232374
2.92598e-05
-0.000234574
1.05504e-08
-3.11689e-05
-0.000233634
-6.6983e-05
0.000341386
-0.000117062
0.00031883
-0.000164079
0.000298731
-0.000193793
0.000245724
-0.000218673
0.000213274
-0.000234475
0.000168031
-0.000246623
0.000133608
-0.00025501
9.7687e-05
-0.000261745
6.56491e-05
-0.000266633
3.4147e-05
-0.000269337
2.71433e-06
-2.93314e-05
-0.000271174
-6.8753e-05
0.000410139
-0.00013155
0.000381627
-0.000186652
0.000353834
-0.00022224
0.000281312
-0.000250207
0.000241241
-0.000266523
0.000184347
-0.000278215
0.0001453
-0.000284729
0.000104201
-0.000289004
6.99242e-05
-0.000292157
3.72993e-05
-0.000295732
6.28982e-06
-2.72456e-05
-0.000297818
-0.000141371
0.000551509
-0.000203869
0.000444125
-0.000264712
0.000414676
-0.000290489
0.00030709
-0.000308881
0.000259633
-0.000317252
0.000192717
-0.00032184
0.000149888
-0.000324904
0.000107265
-0.000328191
7.32114e-05
-0.000332416
4.15241e-05
-0.00033815
1.20239e-05
-1.92216e-05
-0.000346174
-0.000112588
0.000664097
-0.000218901
0.000550438
-0.000297549
0.000493324
-0.000334298
0.000343838
-0.000353187
0.000278521
-0.000358114
0.000197645
-0.000357802
0.000149575
-0.000355375
0.000104839
-0.00035351
7.13459e-05
-0.00035355
4.15645e-05
-0.000357049
1.55232e-05
-1.26879e-05
-0.000363583
-0.000372319
0.00103642
-0.000404299
0.000582418
-0.000443965
0.000532991
-0.000447165
0.000347038
-0.00043081
0.000262167
-0.0004205
0.000187335
-0.00040439
0.000133465
-0.000395504
9.59536e-05
-0.000389933
6.57745e-05
-0.000390544
4.21751e-05
-0.000397924
2.29035e-05
3.35136e-06
-0.000413963
-0.00066404
0.00170046
-0.000649299
0.000567677
-0.000647191
0.000530882
-0.000571599
0.000271446
-0.000502703
0.000193271
-0.000444728
0.00012936
-0.000397455
8.61917e-05
-0.00036382
6.23184e-05
-0.000339741
4.16953e-05
-0.000325095
2.75288e-05
-0.000317495
1.5304e-05
6.05938e-06
-0.000320203
0.00170046
0.00226813
0.00279902
0.00307046
0.00326373
0.00339309
0.00347928
0.0035416
0.0035833
0.00361083
0.00362613
0.00363219
-5.56175e-05
2.07277e-05
-3.67049e-05
-4.28159e-05
8.18461e-06
-2.09862e-05
-3.48365e-05
-2.42405e-06
-5.55538e-06
-2.74626e-05
-1.05667e-05
3.19286e-06
-2.06134e-05
-1.68466e-05
9.99735e-06
-1.36917e-05
-2.14406e-05
1.45189e-05
-6.73486e-06
-2.44257e-05
1.74689e-05
-2.48033e-05
1.80685e-05
-6.04391e-05
4.1485e-06
-4.73509e-05
-4.90355e-06
-3.87648e-05
-1.10102e-05
-3.07594e-05
-1.85721e-05
-2.32453e-05
-2.43607e-05
-1.55431e-05
-2.91428e-05
-7.67291e-06
-3.22959e-05
-3.24762e-05
-6.49178e-05
-4.46811e-06
-5.65347e-05
-1.32866e-05
-4.7611e-05
-1.99339e-05
-3.85826e-05
-2.76005e-05
-2.91824e-05
-3.37609e-05
-1.95198e-05
-3.88054e-05
-9.61488e-06
-4.22008e-05
-4.20911e-05
-7.08383e-05
-1.27761e-05
-6.24772e-05
-2.16477e-05
-5.31868e-05
-2.92243e-05
-4.35258e-05
-3.72616e-05
-3.32191e-05
-4.40676e-05
-2.23668e-05
-4.96577e-05
-1.10702e-05
-5.34974e-05
-5.31613e-05
-7.86423e-05
-1.90828e-05
-7.09689e-05
-2.93211e-05
-6.1529e-05
-3.86642e-05
-5.08909e-05
-4.78996e-05
-3.90999e-05
-5.58587e-05
-2.64099e-05
-6.23476e-05
-1.30994e-05
-6.68079e-05
-6.62607e-05
-8.80306e-05
-2.53699e-05
-8.0043e-05
-3.73088e-05
-7.00363e-05
-4.86709e-05
-5.8399e-05
-5.95369e-05
-4.52455e-05
-6.90121e-05
-3.07337e-05
-7.68595e-05
-1.5305e-05
-8.22366e-05
-8.15657e-05
-9.98137e-05
-3.13253e-05
-9.14854e-05
-4.56371e-05
-8.07745e-05
-5.93818e-05
-6.78256e-05
-7.24858e-05
-5.28846e-05
-8.39532e-05
-3.60689e-05
-9.36751e-05
-1.80385e-05
-0.000100267
-9.96042e-05
-0.000113827
-3.73629e-05
-0.000105073
-5.43913e-05
-9.3551e-05
-7.09037e-05
-7.91455e-05
-8.68912e-05
-6.22371e-05
-0.000100862
-4.2657e-05
-0.000113255
-2.14854e-05
-0.000121439
-0.00012109
-0.000130629
-4.34667e-05
-0.000121372
-6.36484e-05
-0.000108921
-8.33542e-05
-9.27596e-05
-0.000103053
-7.36274e-05
-0.000119994
-5.06423e-05
-0.00013624
-2.57845e-05
-0.000146296
-0.000146874
-0.000150802
-4.93402e-05
-0.000141397
-7.30535e-05
-0.000128428
-9.63231e-05
-0.000110509
-0.000120972
-8.91294e-05
-0.000141374
-6.17548e-05
-0.000163615
-3.19957e-05
-0.000176056
-0.00017887
-0.000173466
-5.50868e-05
-0.000163565
-8.29554e-05
-0.000150134
-0.000109753
-0.000130021
-0.000141085
-0.000106557
-0.000164837
-7.40979e-05
-0.000196075
-3.93449e-05
-0.000210809
-0.000218215
-0.000202607
-5.93058e-05
-0.000193884
-9.16783e-05
-0.000181705
-0.000121932
-0.00016059
-0.0001622
-0.00013523
-0.000190197
-9.58273e-05
-0.000235477
-5.25908e-05
-0.000254045
-0.000270805
-0.000230262
-6.26773e-05
-0.000221456
-0.000100484
-0.000210353
-0.000133035
-0.000187457
-0.000185096
-0.000162149
-0.000215505
-0.000115932
-0.000281695
-6.74239e-05
-0.000302553
-0.000338229
-0.000272325
-6.15266e-05
-0.000268844
-0.000103965
-0.000263652
-0.000138227
-0.000244264
-0.000204485
-0.000220513
-0.000239256
-0.000164708
-0.000337499
-0.000101616
-0.000365645
-0.000439846
-0.000300115
-5.92291e-05
-0.000297186
-0.000106895
-0.000295856
-0.000139556
-0.000277419
-0.000222922
-0.000261701
-0.000254974
-0.000201045
-0.000398155
-0.000140521
-0.000426169
-0.000580367
-0.000358225
-4.71783e-05
-0.000370179
-9.49412e-05
-0.000386244
-0.000123491
-0.00038764
-0.000221526
-0.000388887
-0.000253727
-0.000326459
-0.000460582
-0.000248475
-0.000504153
-0.000828842
-0.000373912
-3.68491e-05
-0.000385075
-8.3779e-05
-0.000404821
-0.000103744
-0.000412324
-0.000214024
-0.00044069
-0.000225361
-0.000398894
-0.000502378
-0.00037474
-0.000528308
-0.00120358
-0.000440838
-9.97416e-06
-0.000482854
-4.17636e-05
-0.000542395
-4.42024e-05
-0.000615681
-0.000140738
-0.000706544
-0.000134498
-0.000732323
-0.000476599
-0.000678879
-0.000581752
-0.00188246
-0.000322775
-7.40208e-06
-0.000342409
-2.21298e-05
-0.00034791
-3.87015e-05
-0.000380513
-0.000108135
-0.000374388
-0.000140623
-0.000377454
-0.000473533
-0.000290121
-0.000669085
-0.00217258
0.00362479
0.00360266
0.00356396
0.00345582
0.0033152
0.00284167
0.00217258
-9.64438e-07
9.64438e-07
-1.78108e-06
8.1664e-07
-2.27784e-06
4.96761e-07
-2.40912e-06
1.31285e-07
-2.16909e-06
-2.40035e-07
-1.61826e-06
-5.50826e-07
-8.45758e-07
-7.72505e-07
-8.45758e-07
-1.09153e-06
2.05597e-06
-2.00382e-06
1.72893e-06
-2.54158e-06
1.03452e-06
-2.64504e-06
2.34751e-07
-2.36177e-06
-5.23302e-07
-1.75614e-06
-1.15646e-06
-9.16524e-07
-1.61212e-06
-1.76228e-06
-1.6368e-06
3.69277e-06
-2.93617e-06
3.0283e-06
-3.65503e-06
1.75338e-06
-3.80584e-06
3.8557e-07
-3.37105e-06
-9.58091e-07
-2.48253e-06
-2.04498e-06
-1.2878e-06
-2.80685e-06
-3.05008e-06
-1.97072e-06
5.66349e-06
-3.5006e-06
4.55817e-06
-4.2836e-06
2.53638e-06
-4.3128e-06
4.14766e-07
-3.76121e-06
-1.50969e-06
-2.75475e-06
-3.05144e-06
-1.42443e-06
-4.13717e-06
-4.47452e-06
-3.746e-06
9.40949e-06
-6.29362e-06
7.10579e-06
-7.34504e-06
3.5878e-06
-7.29957e-06
3.69296e-07
-6.22607e-06
-2.58319e-06
-4.46685e-06
-4.81065e-06
-2.28369e-06
-6.32034e-06
-6.7582e-06
-4.53588e-06
1.39454e-05
-7.57418e-06
1.01441e-05
-8.69422e-06
4.70784e-06
-8.3629e-06
3.7976e-08
-7.0545e-06
-3.89158e-06
-5.05456e-06
-6.8106e-06
-2.57917e-06
-8.79573e-06
-9.33737e-06
-1.03306e-05
2.4276e-05
-1.54878e-05
1.53013e-05
-1.59731e-05
5.19313e-06
-1.46204e-05
-1.31466e-06
-1.17717e-05
-6.74033e-06
-8.15077e-06
-1.04315e-05
-4.08688e-06
-1.28596e-05
-1.34243e-05
-1.24289e-05
-1.81138e-05
-1.84761e-05
-1.65979e-05
-1.33409e-05
-9.25352e-06
-4.6442e-06
)
;

boundaryField
{
    movingWall
    {
        type            calculated;
        value           uniform 0;
    }
    fixedWalls
    {
        type            calculated;
        value           uniform 0;
    }
    frontAndBack
    {
        type            empty;
        value           nonuniform List<scalar> 0();
    }
}


// ************************************************************************* //
