/*--------------------------------*- C++ -*----------------------------------*\
  =========                 |
  \\      /  F ield         | OpenFOAM: The Open Source CFD Toolbox
   \\    /   O peration     | Website:  https://openfoam.org
    \\  /    A nd           | Version:  8
     \\/     M anipulation  |
\*---------------------------------------------------------------------------*/
FoamFile
{
    version     2.0;
    format      ascii;
    class       volVectorField;
    location    "21.5";
    object      U;
}
// * * * * * * * * * * * * * * * * * * * * * * * * * * * * * * * * * * * * * //

dimensions      [0 1 -1 0 0 0 0];

internalField   nonuniform List<vector> 
464
(
(-0.000102561 0.000101242 0)
(-0.00031394 0.000103307 0)
(-0.000523263 9.84067e-05 0)
(-0.000717904 9.11554e-05 0)
(-0.000895995 8.18165e-05 0)
(-0.00105339 7.05992e-05 0)
(-0.00118492 5.77881e-05 0)
(-0.00129628 4.32585e-05 0)
(-0.0013611 2.76967e-05 0)
(-0.00144198 9.02386e-06 0)
(-0.00140335 -9.17009e-06 0)
(-0.00151284 -1.36563e-05 0)
(-0.000109552 0.00031536 0)
(-0.000335152 0.000321598 0)
(-0.000558382 0.000306297 0)
(-0.00076585 0.000283698 0)
(-0.000955593 0.000254758 0)
(-0.00112321 0.000220439 0)
(-0.00126368 0.000182439 0)
(-0.0013824 0.000141112 0)
(-0.00145428 0.000104141 0)
(-0.00154131 5.5921e-05 0)
(-0.00151016 5.01125e-05 0)
(-0.00163008 -2.01223e-05 0)
(-0.000114767 0.000543006 0)
(-0.000351034 0.000553476 0)
(-0.000584609 0.000526929 0)
(-0.000801281 0.000487714 0)
(-0.00099889 0.000437495 0)
(-0.00117219 0.000377883 0)
(-0.00131643 0.000311326 0)
(-0.00143143 0.000238709 0)
(-0.00150608 0.000168351 0)
(-0.0015589 8.5084e-05 0)
(-0.00154158 4.45616e-05 0)
(-0.00152624 -5.77511e-05 0)
(-0.00012277 0.000781533 0)
(-0.000375371 0.000796311 0)
(-0.000624818 0.000757688 0)
(-0.000855777 0.000700646 0)
(-0.00106603 0.000627669 0)
(-0.00125008 0.000540965 0)
(-0.00140364 0.000443417 0)
(-0.00152622 0.00033675 0)
(-0.0016088 0.000226322 0)
(-0.00166602 0.000107889 0)
(-0.00165379 2.36678e-06 0)
(-0.00163551 -0.000132622 0)
(-0.000133945 0.00103993 0)
(-0.000409275 0.00105907 0)
(-0.000680724 0.00100693 0)
(-0.000931309 0.000929988 0)
(-0.00115858 0.000831945 0)
(-0.00135645 0.000715751 0)
(-0.00152065 0.000585321 0)
(-0.00164852 0.000443369 0)
(-0.00173495 0.000295599 0)
(-0.00178285 0.000139535 0)
(-0.0017821 -6.22448e-06 0)
(-0.00174375 -0.000177005 0)
(-0.000148791 0.00132362 0)
(-0.000454103 0.00134716 0)
(-0.000754486 0.00127967 0)
(-0.00103077 0.00118003 0)
(-0.00128027 0.00105381 0)
(-0.00149671 0.000904532 0)
(-0.00167603 0.000737227 0)
(-0.00181595 0.00055528 0)
(-0.00191265 0.00036295 0)
(-0.00196784 0.000161491 0)
(-0.00197034 -4.1871e-05 0)
(-0.0019306 -0.000253848 0)
(-0.000167887 0.00164243 0)
(-0.000511431 0.00166986 0)
(-0.000848596 0.00158413 0)
(-0.00115717 0.00145737 0)
(-0.00143407 0.00129884 0)
(-0.00167303 0.00111213 0)
(-0.0018699 0.000904429 0)
(-0.00202279 0.000679785 0)
(-0.00212874 0.000443359 0)
(-0.00218766 0.000197331 0)
(-0.00219745 -5.19924e-05 0)
(-0.00215881 -0.000310172 0)
(-0.0001927 0.00199719 0)
(-0.000584622 0.0020293 0)
(-0.000967875 0.00192327 0)
(-0.00131607 0.00176549 0)
(-0.0016255 0.00157037 0)
(-0.00189112 0.00134093 0)
(-0.00210838 0.00108798 0)
(-0.00227702 0.000815795 0)
(-0.00239511 0.000530189 0)
(-0.00246319 0.000233829 0)
(-0.00247786 -6.88886e-05 0)
(-0.00244036 -0.000378296 0)
(-0.000222746 0.00242929 0)
(-0.000673363 0.00245919 0)
(-0.00111346 0.00232381 0)
(-0.00151008 0.0021196 0)
(-0.00185863 0.00187809 0)
(-0.00215543 0.00159622 0)
(-0.00239504 0.00129163 0)
(-0.00258059 0.000966743 0)
(-0.0027107 0.000628488 0)
(-0.00278674 0.000278738 0)
(-0.00280958 -7.97657e-05 0)
(-0.00277738 -0.000444469 0)
(-0.000268259 0.00286193 0)
(-0.000796771 0.0028985 0)
(-0.00130871 0.002738 0)
(-0.00176182 0.00249351 0)
(-0.00214884 0.00220703 0)
(-0.00247759 0.00187116 0)
(-0.00273785 0.00151245 0)
(-0.00294017 0.00113155 0)
(-0.00308313 0.000738481 0)
(-0.00317145 0.000336682 0)
(-0.00320108 -7.18189e-05 0)
(-0.00317292 -0.000490986 0)
(-0.000311562 0.00353974 0)
(-0.000924073 0.00354132 0)
(-0.00151978 0.00333423 0)
(-0.00204116 0.00298075 0)
(-0.00248094 0.00262216 0)
(-0.00285008 0.00219369 0)
(-0.00313465 0.00176221 0)
(-0.00335458 0.00131208 0)
(-0.00350556 0.000856373 0)
(-0.00359701 0.000389723 0)
(-0.00363722 -8.79439e-05 0)
(-0.00362117 -0.000574555 0)
(-0.000420539 0.00402611 0)
(-0.00115765 0.00404678 0)
(-0.00187081 0.0038055 0)
(-0.00247406 0.00340387 0)
(-0.00293557 0.00299153 0)
(-0.00333755 0.00249705 0)
(-0.00361932 0.00200656 0)
(-0.003846 0.00149649 0)
(-0.00400551 0.000988158 0)
(-0.00411583 0.000479202 0)
(-0.00416541 -3.33297e-05 0)
(-0.00415981 -0.000562322 0)
(-0.000467612 0.00521945 0)
(-0.00132346 0.00505846 0)
(-0.00216361 0.00475729 0)
(-0.00285602 0.00407158 0)
(-0.00338754 0.00356429 0)
(-0.00383563 0.00288745 0)
(-0.00413526 0.00230645 0)
(-0.00437311 0.00169807 0)
(-0.00452279 0.00111525 0)
(-0.00461841 0.000532016 0)
(-0.00467861 -5.93795e-05 0)
(-0.00469149 -0.000667372 0)
(-0.000811779 0.00568327 0)
(-0.00185114 0.00563595 0)
(-0.00285897 0.00525319 0)
(-0.00366807 0.00453387 0)
(-0.00411779 0.00393704 0)
(-0.00459555 0.00318276 0)
(-0.00480787 0.00253751 0)
(-0.00503719 0.00187123 0)
(-0.00517159 0.00125447 0)
(-0.00529064 0.000654013 0)
(-0.00536501 6.02117e-05 0)
(-0.00540194 -0.000553912 0)
(-0.000759207 0.00807491 0)
(-0.00200683 0.00718219 0)
(-0.00326232 0.00677109 0)
(-0.004178 0.00533232 0)
(-0.00473785 0.00463544 0)
(-0.00523784 0.00355794 0)
(-0.00544684 0.00282274 0)
(-0.00565672 0.00203354 0)
(-0.00573985 0.00135382 0)
(-0.00581248 0.000692299 0)
(-0.00588616 4.09097e-05 0)
(-0.00591531 -0.000647673 0)
(-0.00208328 0.00819967 0)
(-0.00352142 0.00804372 0)
(-0.00470251 0.00730104 0)
(-0.00580723 0.00592245 0)
(-0.00588279 0.00497591 0)
(-0.0064088 0.00381471 0)
(-0.00632924 0.0029778 0)
(-0.0065062 0.00215131 0)
(-0.00651266 0.00146626 0)
(-0.00660396 0.000823134 0)
(-0.00670538 0.000223262 0)
(-0.00679078 -0.000411255 0)
(-0.00123689 0.014056 0)
(-0.00332596 0.00960685 0)
(-0.00536448 0.00937388 0)
(-0.00653375 0.00626988 0)
(-0.00684546 0.00542382 0)
(-0.00724324 0.00384432 0)
(-0.00711058 0.00299253 0)
(-0.00716948 0.00210727 0)
(-0.00706765 0.00143151 0)
(-0.0070551 0.000809476 0)
(-0.00711955 0.000238628 0)
(-0.00710383 -0.000385695 0)
(-0.00609806 0.0122591 0)
(-0.00859217 0.0126849 0)
(-0.00779912 0.0103125 0)
(-0.00976495 0.0076584 0)
(-0.00827225 0.00579331 0)
(-0.00884354 0.00414502 0)
(-0.00805758 0.00304002 0)
(-0.00805986 0.00212946 0)
(-0.00779708 0.00145806 0)
(-0.00777967 0.000883829 0)
(-0.00787863 0.00040506 0)
(-0.00798139 -9.81241e-05 0)
(-0.0152368 0.0297282 0)
(-0.0116455 0.010209 0)
(-0.0140193 0.0108774 0)
(-0.0120937 0.00598139 0)
(-0.0106018 0.0045658 0)
(-0.00955642 0.00323727 0)
(-0.00824885 0.00222798 0)
(-0.00761994 0.00165448 0)
(-0.00696418 0.00113107 0)
(-0.00659995 0.000769185 0)
(-0.00645286 0.000482285 0)
(-0.00616555 0.00022038 0)
(0.0332122 0.0373804 0)
(0.035736 0.0128365 0)
(0.0541058 0.0102548 0)
(0.0583959 0.00504497 0)
(0.0640975 0.00324154 0)
(0.0666685 0.00200225 0)
(0.068921 0.0012586 0)
(0.0703117 0.000866146 0)
(0.0713009 0.000558906 0)
(0.0720083 0.000350445 0)
(0.0723281 0.000146777 0)
(0.0728779 3.31397e-05 0)
(-0.00132814 0.000724258 0)
(-0.000913111 0.000388525 0)
(-0.00079048 7.67962e-05 0)
(-0.000609475 -0.000103591 0)
(-0.000485166 -0.000247414 0)
(-0.000341707 -0.000343263 0)
(-0.000204415 -0.000405802 0)
(-6.59736e-05 -0.000417176 0)
(-0.0014267 0.000120315 0)
(-0.00100841 -5.2974e-05 0)
(-0.000875752 -0.000170043 0)
(-0.00068176 -0.000312613 0)
(-0.000544564 -0.000419801 0)
(-0.000387572 -0.000508209 0)
(-0.000232513 -0.000565824 0)
(-7.54888e-05 -0.000570131 0)
(-0.00140244 4.0588e-05 0)
(-0.00120391 -0.000147852 0)
(-0.00105009 -0.000277143 0)
(-0.000859169 -0.000437642 0)
(-0.000680732 -0.00056191 0)
(-0.000488066 -0.000664115 0)
(-0.00029111 -0.000731957 0)
(-9.46915e-05 -0.000734259 0)
(-0.00151737 -0.000215037 0)
(-0.00132589 -0.000377353 0)
(-0.0011656 -0.000512833 0)
(-0.000966496 -0.000659289 0)
(-0.000771097 -0.00078204 0)
(-0.00055813 -0.000882745 0)
(-0.000334766 -0.000951897 0)
(-0.000109397 -0.000946287 0)
(-0.00164714 -0.000301299 0)
(-0.00150166 -0.000494517 0)
(-0.00133207 -0.000663126 0)
(-0.00112834 -0.000837813 0)
(-0.000904193 -0.000986904 0)
(-0.000658548 -0.00110917 0)
(-0.000395829 -0.00119303 0)
(-0.000129628 -0.00118472 0)
(-0.00183489 -0.000456966 0)
(-0.00168766 -0.000673051 0)
(-0.00150892 -0.000877638 0)
(-0.00129026 -0.0010733 0)
(-0.00104248 -0.00124379 0)
(-0.000765068 -0.00138425 0)
(-0.000461905 -0.00148096 0)
(-0.000151865 -0.00146809 0)
(-0.00206636 -0.000561741 0)
(-0.0019223 -0.000823608 0)
(-0.00173231 -0.00107391 0)
(-0.00149448 -0.00131293 0)
(-0.00121516 -0.00152147 0)
(-0.00089674 -0.0016954 0)
(-0.000543504 -0.00181413 0)
(-0.00017958 -0.00180044 0)
(-0.00234835 -0.000687475 0)
(-0.00219983 -0.000998089 0)
(-0.00199825 -0.00129764 0)
(-0.00173783 -0.00158381 0)
(-0.00142497 -0.00183356 0)
(-0.00105901 -0.00204828 0)
(-0.000645118 -0.00219222 0)
(-0.000215081 -0.00217913 0)
(-0.00268614 -0.000812313 0)
(-0.00253245 -0.00118455 0)
(-0.002318 -0.00154786 0)
(-0.0020304 -0.00190435 0)
(-0.00167962 -0.0022164 0)
(-0.00125699 -0.00250052 0)
(-0.00076931 -0.00268587 0)
(-0.000259866 -0.00268589 0)
(-0.00308846 -0.000915661 0)
(-0.00293543 -0.00134731 0)
(-0.00271806 -0.00176803 0)
(-0.00240649 -0.0021956 0)
(-0.00202114 -0.0025559 0)
(-0.00153055 -0.00291885 0)
(-0.000946073 -0.00313213 0)
(-0.000328703 -0.00315529 0)
(-0.00354235 -0.00107469 0)
(-0.00338475 -0.00159768 0)
(-0.00316603 -0.00211421 0)
(-0.00281833 -0.00267974 0)
(-0.00240249 -0.00314342 0)
(-0.00183586 -0.00367605 0)
(-0.00114404 -0.00396623 0)
(-0.000418892 -0.00405665 0)
(-0.00411175 -0.00110386 0)
(-0.0039754 -0.001687 0)
(-0.00380015 -0.00223172 0)
(-0.0034366 -0.00291053 0)
(-0.00301712 -0.00338445 0)
(-0.00235736 -0.00409486 0)
(-0.00149884 -0.00438459 0)
(-0.000588337 -0.00459105 0)
(-0.00466645 -0.00130092 0)
(-0.00451243 -0.00202478 0)
(-0.00438784 -0.0027055 0)
(-0.00397159 -0.00365066 0)
(-0.00358378 -0.00431526 0)
(-0.00284159 -0.005428 0)
(-0.00184136 -0.00589625 0)
(-0.00082356 -0.0063628 0)
(-0.00546966 -0.00116405 0)
(-0.00538217 -0.00193668 0)
(-0.00542595 -0.00253594 0)
(-0.0050509 -0.00365588 0)
(-0.00479196 -0.00417957 0)
(-0.00394908 -0.0056992 0)
(-0.00269852 -0.00604124 0)
(-0.00131981 -0.00700154 0)
(-0.00604718 -0.00134613 0)
(-0.00588374 -0.00229056 0)
(-0.00609993 -0.00309076 0)
(-0.00561708 -0.0046451 0)
(-0.00560855 -0.00555215 0)
(-0.00472164 -0.00799019 0)
(-0.00343507 -0.00881264 0)
(-0.00209383 -0.0108347 0)
(-0.00711398 -0.000966594 0)
(-0.0071344 -0.00190468 0)
(-0.00778222 -0.00237313 0)
(-0.00753253 -0.00412083 0)
(-0.00812776 -0.00443995 0)
(-0.00725336 -0.007686 0)
(-0.00595491 -0.00792482 0)
(-0.00384311 -0.0120494 0)
(-0.00753597 -0.0009766 0)
(-0.00728565 -0.00197568 0)
(-0.0082958 -0.00269294 0)
(-0.00767718 -0.00490869 0)
(-0.00907637 -0.00594967 0)
(-0.00825629 -0.0110532 0)
(-0.00798918 -0.0126484 0)
(-0.00671477 -0.0216054 0)
(-0.0086741 -0.000443886 0)
(-0.008826 -0.0012923 0)
(-0.0106781 -0.00132575 0)
(-0.0107774 -0.00346524 0)
(-0.0141633 -0.00279141 0)
(-0.0137234 -0.00864179 0)
(-0.0159826 -0.00794499 0)
(-0.0107095 -0.025773 0)
(-0.00676975 1.62245e-05 0)
(-0.00596437 -0.000436443 0)
(-0.0079723 -0.00053361 0)
(-0.00564254 -0.00232074 0)
(-0.0099656 -0.00282923 0)
(-0.00457414 -0.0108665 0)
(-0.0110285 -0.016047 0)
(-0.000116093 -0.0508834 0)
(0.0720662 -0.000293456 0)
(0.0734155 -0.00041689 0)
(0.0700044 -0.000946321 0)
(0.0733696 -0.00189302 0)
(0.0638094 -0.00258366 0)
(0.0698635 -0.00765674 0)
(0.0424673 -0.00994802 0)
(0.0460054 -0.0343083 0)
(-9.91616e-06 -5.05319e-06 0)
(-2.86661e-05 -6.08089e-06 0)
(-4.22849e-05 -7.50267e-06 0)
(-4.86149e-05 -9.52987e-06 0)
(-4.74144e-05 -1.06301e-05 0)
(-3.91489e-05 -1.17413e-05 0)
(-2.53555e-05 -1.23702e-05 0)
(-8.54117e-06 -1.22758e-05 0)
(-1.13278e-05 4.45451e-05 0)
(-3.23018e-05 3.95657e-05 0)
(-4.75492e-05 2.79755e-05 0)
(-5.38286e-05 1.50724e-05 0)
(-5.16601e-05 1.38305e-06 0)
(-4.25766e-05 -9.80414e-06 0)
(-2.74459e-05 -1.80057e-05 0)
(-9.27569e-06 -2.10317e-05 0)
(-1.71086e-05 3.58173e-05 0)
(-4.82847e-05 2.79129e-05 0)
(-6.86398e-05 1.21763e-05 0)
(-7.73199e-05 -6.23594e-06 0)
(-7.43499e-05 -2.3064e-05 0)
(-6.02541e-05 -3.74749e-05 0)
(-3.87001e-05 -4.75843e-05 0)
(-1.294e-05 -5.05676e-05 0)
(-2.09635e-05 0.000115134 0)
(-5.77129e-05 9.60498e-05 0)
(-8.1754e-05 5.99655e-05 0)
(-8.91038e-05 2.2536e-05 0)
(-8.29343e-05 -1.40285e-05 0)
(-6.71564e-05 -4.26994e-05 0)
(-4.27066e-05 -6.29692e-05 0)
(-1.43841e-05 -6.97287e-05 0)
(-4.0999e-05 0.000106652 0)
(-0.000108326 8.21786e-05 0)
(-0.000142218 3.86519e-05 0)
(-0.000151308 -7.01191e-06 0)
(-0.000139576 -4.8164e-05 0)
(-0.00010923 -8.16746e-05 0)
(-6.88442e-05 -0.000104957 0)
(-2.27736e-05 -0.000111667 0)
(-5.02303e-05 0.000277254 0)
(-0.000130589 0.000208167 0)
(-0.000171034 0.00010876 0)
(-0.000175939 2.29183e-05 0)
(-0.000157619 -5.25798e-05 0)
(-0.000124036 -0.000107645 0)
(-7.75599e-05 -0.000144711 0)
(-2.58779e-05 -0.000155606 0)
(-0.00012206 0.000269958 0)
(-0.000288796 0.000189251 0)
(-0.000327595 7.45227e-05 0)
(-0.000312596 -2.18044e-05 0)
(-0.000270091 -0.000106579 0)
(-0.000201423 -0.000168829 0)
(-0.00012362 -0.000211171 0)
(-4.03979e-05 -0.000221805 0)
(-0.000156003 0.00071873 0)
(-0.000338527 0.000434915 0)
(-0.000382494 0.00013897 0)
(-0.000357128 -2.82709e-05 0)
(-0.000304723 -0.000158385 0)
(-0.000228822 -0.000243514 0)
(-0.000140273 -0.000298562 0)
(-4.60882e-05 -0.000310799 0)
)
;

boundaryField
{
    movingWall
    {
        type            fixedValue;
        value           uniform (1 0 0);
    }
    fixedWalls
    {
        type            noSlip;
    }
    frontAndBack
    {
        type            empty;
    }
}


// ************************************************************************* //
