0 	-1.39383e-08
1.57135 	1.41538e-07
3.1427 	4.72487e-06
4.71405 	2.60878e-05
6.28539 	8.55836e-05
7.85674 	0.000215155
9.42809 	0.000454265
10.9994 	0.000852979
12.5708 	0.00147798
14.1421 	0.00676513
