0 	0 	0 	0
1.57135 	-0.00059716 	0.000545772 	0
3.1427 	-0.00132891 	0.000958474 	0
4.71405 	-0.00225316 	0.0010526 	0
6.28539 	-0.0033727 	0.000656947 	0
7.85674 	-0.00465772 	-0.000360076 	0
9.42809 	-0.00625467 	-0.00207981 	0
10.9994 	-0.00916552 	-0.0047361 	0
12.5708 	-0.01311 	-0.0114836 	0
14.1421 	0.5 	0 	0
