/*--------------------------------*- C++ -*----------------------------------*\
  =========                 |
  \\      /  F ield         | OpenFOAM: The Open Source CFD Toolbox
   \\    /   O peration     | Website:  https://openfoam.org
    \\  /    A nd           | Version:  8
     \\/     M anipulation  |
\*---------------------------------------------------------------------------*/
FoamFile
{
    version     2.0;
    format      ascii;
    class       volVectorField;
    location    "59.5";
    object      U;
}
// * * * * * * * * * * * * * * * * * * * * * * * * * * * * * * * * * * * * * //

dimensions      [0 1 -1 0 0 0 0];

internalField   nonuniform List<vector> 
116
(
(0.0208072 -0.0119608 0)
(0.0180681 -0.0105117 0)
(0.0522859 -0.0200727 0)
(0.0127537 -0.0220799 0)
(0.0122798 0.0637961 0)
(-0.161164 0.0903131 0)
(0.0106789 -0.0291968 0)
(-0.00526256 -0.0185661 0)
(-0.015026 0.0202226 0)
(-0.0988304 0.0673366 0)
(-0.114591 0.093133 0)
(-0.171851 0.0647563 0)
(-0.00291284 -0.0157565 0)
(-0.0325969 0.0181234 0)
(-0.0594909 0.0645054 0)
(-0.106435 0.0950993 0)
(-0.112689 0.12151 0)
(-0.121557 0.074201 0)
(-0.0102287 0.00423517 0)
(-0.0347607 0.0431096 0)
(-0.056815 0.0924748 0)
(-0.0859302 0.117487 0)
(-0.0817002 0.113964 0)
(-0.0615438 0.0420144 0)
(-0.00550242 0.0296999 0)
(-0.0263908 0.0637772 0)
(-0.0434922 0.108021 0)
(-0.0515134 0.116885 0)
(-0.042326 0.0967378 0)
(-0.0227096 0.0258475 0)
(-0.00334198 0.0346413 0)
(-0.0106715 0.0809225 0)
(-0.00982096 0.114496 0)
(-0.00782045 0.119741 0)
(-0.00437975 0.0955246 0)
(0.00497014 0.0341965 0)
(0.00179377 0.0480159 0)
(0.0024168 0.0726558 0)
(0.00341521 0.107197 0)
(0.0190717 0.106822 0)
(0.0285395 0.0797746 0)
(0.0460934 0.0312068 0)
(0.00779822 0.0261267 0)
(0.0141435 0.0794159 0)
(0.0384058 0.0950904 0)
(0.0645125 0.098332 0)
(0.0764958 0.0764874 0)
(0.0942493 0.0449307 0)
(-0.0567821 0.0331489 0)
(-0.0192252 0.0376134 0)
(-0.00828929 0.0575875 0)
(0.0400709 0.0638755 0)
(0.0626857 0.0467751 0)
(0.0927851 0.0322865 0)
(0.052844 0.0903132 0)
(0.0838116 0.0418783 0)
(0.116119 0.032968 0)
(0.179628 0.0300015 0)
(0.200171 0.025598 0)
(0.25288 0.0224028 0)
(-0.111412 0.116999 0)
(-0.11536 -0.0318081 0)
(-0.027228 0.00118684 0)
(-0.00755696 -0.137214 0)
(-0.108763 0.0803863 0)
(-0.116104 -0.0707873 0)
(-0.0846708 -0.0751463 0)
(0.00453766 -0.174171 0)
(-0.0782976 0.0573893 0)
(-0.0559427 -0.0638183 0)
(-0.0762392 -0.118822 0)
(0.000201173 -0.220127 0)
(-0.0443004 0.0289274 0)
(-0.0110622 -0.0657024 0)
(-0.0467694 -0.123411 0)
(0.00840784 -0.243386 0)
(-0.0323171 0.00592441 0)
(0.00616388 -0.0690739 0)
(-0.0409262 -0.138625 0)
(0.012316 -0.266614 0)
(-0.0148986 0.00289476 0)
(0.031932 -0.055673 0)
(-0.0257351 -0.121034 0)
(0.01993 -0.272915 0)
(0.022911 -0.0212829 0)
(0.0514244 -0.0660141 0)
(-0.0225579 -0.135094 0)
(0.0279179 -0.278129 0)
(0.0734023 0.00490713 0)
(0.0727783 -0.00881622 0)
(0.00996463 -0.0788479 0)
(0.0509624 -0.251983 0)
(0.0873328 -0.000480213 0)
(0.094102 -0.0171856 0)
(0.0690293 -0.121823 0)
(0.0806813 -0.253035 0)
(0.248312 0.0142619 0)
(0.274071 0.0027194 0)
(0.215756 -0.023504 0)
(0.152537 -0.0676842 0)
(-0.0224413 0.0050882 0)
(-0.059075 0.00529467 0)
(-0.0743732 -0.000342054 0)
(-0.0444568 -0.0373667 0)
(-0.0195696 0.0733814 0)
(-0.0470091 0.046527 0)
(-0.0437217 -0.00746823 0)
(-0.0426923 -0.089399 0)
(-0.0359651 0.0723783 0)
(-0.00426041 0.0190304 0)
(-0.0146578 0.00322139 0)
(-0.0308915 -0.13016 0)
(-0.00785507 0.121873 0)
(-0.0412231 0.0298406 0)
(0.0305325 0.0240094 0)
(-0.0345439 -0.124024 0)
)
;

boundaryField
{
    movingWall
    {
        type            fixedValue;
        value           uniform (1 0 0);
    }
    fixedWalls
    {
        type            noSlip;
    }
    frontAndBack
    {
        type            empty;
    }
}


// ************************************************************************* //
