/*--------------------------------*- C++ -*----------------------------------*\
  =========                 |
  \\      /  F ield         | OpenFOAM: The Open Source CFD Toolbox
   \\    /   O peration     | Website:  https://openfoam.org
    \\  /    A nd           | Version:  8
     \\/     M anipulation  |
\*---------------------------------------------------------------------------*/
FoamFile
{
    version     2.0;
    format      ascii;
    class       volScalarField;
    location    "99";
    object      p;
}
// * * * * * * * * * * * * * * * * * * * * * * * * * * * * * * * * * * * * * //

dimensions      [0 2 -2 0 0 0 0];

internalField   nonuniform List<scalar> 
400
(
3.3829e-15
3.43279e-15
3.25339e-15
3.04846e-15
2.90606e-15
2.93306e-15
2.85762e-15
2.66322e-15
2.58576e-15
2.43146e-15
2.20698e-15
2.04881e-15
1.83007e-15
1.44171e-15
1.26968e-15
1.12969e-15
1.02618e-15
6.64713e-16
1.59315e-16
-5.57534e-17
3.03427e-15
3.4082e-15
3.27296e-15
3.17391e-15
2.95867e-15
2.86234e-15
2.77892e-15
2.58238e-15
2.66668e-15
2.43834e-15
2.13254e-15
2.23812e-15
1.94713e-15
1.44908e-15
1.23363e-15
1.15023e-15
1.0358e-15
5.61146e-16
2.69562e-16
2.64959e-17
2.91229e-15
3.23104e-15
3.28231e-15
3.16776e-15
3.08029e-15
2.79206e-15
2.64944e-15
2.66863e-15
2.55223e-15
2.41957e-15
2.14847e-15
2.30794e-15
1.98881e-15
1.48718e-15
1.13387e-15
1.20346e-15
1.00505e-15
5.82187e-16
3.15214e-16
-1.80108e-18
3.10152e-15
3.08732e-15
2.97317e-15
3.13148e-15
3.25866e-15
2.98273e-15
2.62738e-15
2.53341e-15
2.57091e-15
2.34172e-15
2.21262e-15
2.1257e-15
1.80649e-15
1.46427e-15
1.22014e-15
1.06408e-15
8.94913e-16
7.86547e-16
3.67491e-16
-3.15355e-17
3.30161e-15
2.99587e-15
2.81088e-15
3.07351e-15
3.2013e-15
3.12824e-15
2.74969e-15
2.50685e-15
2.58793e-15
2.20809e-15
2.12716e-15
1.95093e-15
1.73073e-15
1.44827e-15
1.29976e-15
1.01529e-15
7.74202e-16
8.9503e-16
4.47351e-16
5.37697e-17
3.18054e-15
2.98428e-15
2.82021e-15
3.02983e-15
3.15179e-15
2.92287e-15
2.69632e-15
2.57722e-15
2.44017e-15
2.19033e-15
2.11985e-15
2.00425e-15
1.74833e-15
1.37975e-15
1.29237e-15
1.19259e-15
8.51062e-16
9.25404e-16
3.93399e-16
-4.94658e-17
2.9321e-15
2.9285e-15
2.78362e-15
2.90076e-15
3.21712e-15
2.79194e-15
2.67591e-15
2.51269e-15
2.21275e-15
2.19951e-15
2.22902e-15
2.05079e-15
1.74804e-15
1.50309e-15
1.29769e-15
1.12857e-15
1.0672e-15
7.52351e-16
4.50235e-16
1.18887e-16
2.68641e-15
2.89746e-15
2.91335e-15
2.71858e-15
3.09387e-15
2.82447e-15
2.75087e-15
2.49774e-15
2.07022e-15
2.15792e-15
2.23378e-15
1.99505e-15
1.72726e-15
1.47068e-15
1.22077e-15
1.30488e-15
1.01e-15
6.23354e-16
5.66025e-16
2.22744e-16
2.83435e-15
2.85987e-15
2.71711e-15
2.64914e-15
2.95936e-15
2.72643e-15
2.79793e-15
2.48094e-15
2.10288e-15
2.12942e-15
2.13267e-15
1.91479e-15
1.69629e-15
1.46514e-15
1.34371e-15
1.2116e-15
9.80474e-16
7.01835e-16
4.82838e-16
1.79069e-16
2.96276e-15
2.79334e-15
2.6041e-15
2.75022e-15
2.7188e-15
2.74697e-15
2.71702e-15
2.52838e-15
2.28003e-15
2.07934e-15
1.99871e-15
1.77325e-15
1.6792e-15
1.62504e-15
1.43619e-15
1.23782e-15
9.60019e-16
7.46105e-16
4.07329e-16
-4.22017e-17
3.22081e-15
2.83243e-15
2.5459e-15
2.50837e-15
2.61751e-15
2.61951e-15
2.69886e-15
2.63761e-15
2.47067e-15
2.10263e-15
1.72564e-15
1.66207e-15
1.63449e-15
1.67995e-15
1.54167e-15
1.01239e-15
8.80206e-16
7.9005e-16
3.59041e-16
1.30547e-17
3.22093e-15
2.90353e-15
2.53609e-15
2.56593e-15
2.4597e-15
2.56294e-15
2.66392e-15
2.62143e-15
2.46502e-15
2.13299e-15
1.64698e-15
1.63979e-15
1.52093e-15
1.60912e-15
1.53666e-15
1.06037e-15
7.16566e-16
6.0252e-16
2.86923e-16
6.69416e-17
3.18639e-15
2.87613e-15
2.67812e-15
2.63001e-15
2.5594e-15
2.53109e-15
2.71831e-15
2.63281e-15
2.48632e-15
1.95871e-15
1.71998e-15
1.57099e-15
1.4659e-15
1.43019e-15
1.40149e-15
9.04299e-16
6.93631e-16
4.946e-16
1.73951e-16
6.26647e-17
3.1117e-15
2.79858e-15
2.87662e-15
2.66256e-15
2.5757e-15
2.67077e-15
2.85311e-15
2.57794e-15
2.28418e-15
2.15926e-15
1.87457e-15
1.6073e-15
1.32934e-15
1.23822e-15
1.20737e-15
1.00804e-15
6.90979e-16
3.54285e-16
9.40786e-17
6.58271e-17
3.27663e-15
2.88871e-15
2.79369e-15
2.56554e-15
2.76199e-15
2.60868e-15
2.74527e-15
2.62594e-15
2.28857e-15
2.07832e-15
1.8611e-15
1.4779e-15
1.25848e-15
1.20378e-15
1.13521e-15
1.01883e-15
7.34427e-16
3.96741e-16
1.8294e-16
1.34774e-16
3.18329e-15
3.01687e-15
2.74937e-15
2.68056e-15
2.80643e-15
2.76156e-15
2.80727e-15
2.48676e-15
2.19834e-15
1.89707e-15
1.87805e-15
1.32273e-15
1.30792e-15
1.3947e-15
1.1281e-15
1.00756e-15
6.69237e-16
4.11371e-16
2.74564e-16
1.3657e-16
3.21729e-15
3.17603e-15
2.89068e-15
2.71411e-15
2.94626e-15
2.81215e-15
2.69004e-15
2.4415e-15
2.19256e-15
2.04903e-15
1.77877e-15
1.32024e-15
1.37281e-15
1.51749e-15
1.16616e-15
8.76061e-16
6.87762e-16
4.73044e-16
1.38573e-16
1.47716e-17
3.28286e-15
3.23174e-15
2.99554e-15
2.86435e-15
2.89449e-15
2.82312e-15
2.64126e-15
2.29872e-15
2.18635e-15
2.20389e-15
1.7076e-15
1.47158e-15
1.51631e-15
1.45917e-15
1.09096e-15
9.23162e-16
7.3261e-16
4.18259e-16
1.28632e-16
3.90939e-17
3.38754e-15
3.332e-15
3.06675e-15
2.91123e-15
2.83799e-15
2.88811e-15
2.68229e-15
2.21057e-15
2.07472e-15
2.15759e-15
1.74527e-15
1.55867e-15
1.37788e-15
1.23796e-15
9.57096e-16
1.16961e-15
9.20722e-16
4.39121e-16
1.13434e-16
5.49046e-17
3.5188e-15
3.32371e-15
3.12947e-15
2.93785e-15
2.86526e-15
2.84312e-15
2.68289e-15
2.26779e-15
2.10377e-15
2.02886e-15
1.69927e-15
1.56632e-15
1.33112e-15
1.18752e-15
1.02331e-15
1.32463e-15
9.82927e-16
4.94081e-16
2.46309e-16
9.55605e-17
)
;

boundaryField
{
    inlet
    {
        type            zeroGradient;
    }
    outlet
    {
        type            fixedValue;
        value           uniform 0;
    }
    up
    {
        type            zeroGradient;
    }
    down
    {
        type            zeroGradient;
    }
    frontAndBack
    {
        type            empty;
    }
}


// ************************************************************************* //
