0 	2.56246e-08
1.57135 	-2.48975e-07
3.1427 	7.37713e-07
4.71405 	9.74683e-06
6.28539 	4.13262e-05
7.85674 	0.000120714
9.42809 	0.000277582
10.9994 	0.000518657
12.5708 	0.000444077
14.1421 	0.0092621
