/*--------------------------------*- C++ -*----------------------------------*\
  =========                 |
  \\      /  F ield         | OpenFOAM: The Open Source CFD Toolbox
   \\    /   O peration     | Website:  https://openfoam.org
    \\  /    A nd           | Version:  8
     \\/     M anipulation  |
\*---------------------------------------------------------------------------*/
FoamFile
{
    version     2.0;
    format      ascii;
    class       volScalarField;
    location    "0.81";
    object      p;
}
// * * * * * * * * * * * * * * * * * * * * * * * * * * * * * * * * * * * * * //

dimensions      [0 2 -2 0 0 0 0];

internalField   nonuniform List<scalar> 
400
(
1.6439e-12
-2.98668e-07
6.89798e-07
1.91827e-06
2.90161e-06
3.73465e-06
4.47139e-06
5.11374e-06
5.6411e-06
6.05123e-06
6.36579e-06
6.61066e-06
6.79724e-06
6.9142e-06
6.923e-06
6.75505e-06
6.31392e-06
5.44488e-06
3.82021e-06
1.62682e-06
1.30596e-06
1.11416e-06
1.84265e-06
2.75726e-06
3.5499e-06
4.23743e-06
4.86233e-06
5.41264e-06
5.85735e-06
6.19137e-06
6.43757e-06
6.62325e-06
6.76038e-06
6.83794e-06
6.81883e-06
6.64261e-06
6.24963e-06
5.56177e-06
4.39869e-06
2.73152e-06
2.93175e-06
2.55663e-06
2.92746e-06
3.57886e-06
4.19005e-06
4.7419e-06
5.26477e-06
5.73523e-06
6.11332e-06
6.38923e-06
6.58505e-06
6.72953e-06
6.8374e-06
6.90166e-06
6.89072e-06
6.75538e-06
6.47323e-06
6.03322e-06
5.28429e-06
4.11352e-06
4.27187e-06
3.71146e-06
3.88628e-06
4.36899e-06
4.83339e-06
5.26364e-06
5.69515e-06
6.0975e-06
6.42032e-06
6.64681e-06
6.7974e-06
6.90329e-06
6.98423e-06
7.04009e-06
7.04929e-06
6.97828e-06
6.83477e-06
6.64179e-06
6.22028e-06
5.32724e-06
5.20304e-06
4.56566e-06
4.66709e-06
5.07469e-06
5.44731e-06
5.78801e-06
6.14892e-06
6.49745e-06
6.77462e-06
6.95737e-06
7.06533e-06
7.13339e-06
7.18691e-06
7.23228e-06
7.25613e-06
7.24135e-06
7.22231e-06
7.23653e-06
7.0493e-06
6.28939e-06
5.90644e-06
5.20203e-06
5.28037e-06
5.67191e-06
6.00169e-06
6.28825e-06
6.60161e-06
6.91046e-06
7.15096e-06
7.29629e-06
7.36707e-06
7.40341e-06
7.43626e-06
7.47486e-06
7.50912e-06
7.53293e-06
7.60346e-06
7.77008e-06
7.74596e-06
7.05192e-06
6.46417e-06
5.69562e-06
5.76929e-06
6.17445e-06
6.49321e-06
6.75171e-06
7.03487e-06
7.31422e-06
7.52413e-06
7.63678e-06
7.67576e-06
7.68766e-06
7.70902e-06
7.74923e-06
7.79536e-06
7.84517e-06
7.97288e-06
8.24183e-06
8.32971e-06
7.67132e-06
6.93582e-06
6.10895e-06
6.18008e-06
6.60785e-06
6.93164e-06
7.17742e-06
7.44035e-06
7.69513e-06
7.87696e-06
7.95942e-06
7.97033e-06
7.9633e-06
7.98031e-06
8.02942e-06
8.0909e-06
8.16054e-06
8.32369e-06
8.65863e-06
8.82544e-06
8.19427e-06
7.3595e-06
6.48223e-06
6.54429e-06
6.99088e-06
7.32462e-06
7.56488e-06
7.81214e-06
8.04432e-06
8.1998e-06
8.2554e-06
8.24325e-06
8.22295e-06
8.24105e-06
8.30374e-06
8.38312e-06
8.46965e-06
8.65463e-06
9.0301e-06
9.25366e-06
8.65162e-06
7.7554e-06
6.83673e-06
6.88005e-06
7.33484e-06
7.67621e-06
7.91269e-06
8.14581e-06
8.35681e-06
8.4894e-06
8.52463e-06
8.49774e-06
8.47186e-06
8.49629e-06
8.57504e-06
8.6725e-06
8.77279e-06
8.9693e-06
9.36566e-06
9.62875e-06
9.06051e-06
8.13267e-06
7.18318e-06
7.19823e-06
7.64748e-06
7.98993e-06
8.22139e-06
8.44087e-06
8.633e-06
8.74827e-06
8.77232e-06
8.74152e-06
8.71934e-06
8.75532e-06
8.85103e-06
8.96438e-06
9.07368e-06
9.27187e-06
9.67187e-06
9.95906e-06
9.42907e-06
8.49191e-06
7.52492e-06
7.50385e-06
7.93306e-06
8.26888e-06
8.49384e-06
8.70109e-06
8.87814e-06
8.98295e-06
9.00552e-06
8.9815e-06
8.97153e-06
9.02296e-06
9.13463e-06
9.2597e-06
9.37192e-06
9.56192e-06
9.94933e-06
1.02455e-05
9.75727e-06
8.82553e-06
7.85745e-06
7.79458e-06
8.19017e-06
8.51284e-06
8.73187e-06
8.93081e-06
9.0986e-06
9.20035e-06
9.22997e-06
9.22086e-06
9.22858e-06
9.29647e-06
9.42082e-06
9.55206e-06
9.6609e-06
9.83379e-06
1.01934e-05
1.04827e-05
1.00377e-05
9.12115e-06
8.17015e-06
8.06206e-06
8.41177e-06
8.71635e-06
8.93243e-06
9.12986e-06
9.29654e-06
9.40326e-06
9.44691e-06
9.45771e-06
9.48502e-06
9.56749e-06
9.69969e-06
9.83151e-06
9.93203e-06
1.00813e-05
1.03999e-05
1.06655e-05
1.02612e-05
9.36899e-06
8.45182e-06
8.29697e-06
8.58901e-06
8.87001e-06
9.0864e-06
9.29035e-06
9.46549e-06
9.58575e-06
9.6495e-06
9.68327e-06
9.73016e-06
9.82447e-06
9.96037e-06
1.00895e-05
1.01803e-05
1.03038e-05
1.05722e-05
1.07973e-05
1.04252e-05
9.56886e-06
8.69661e-06
8.49455e-06
8.71712e-06
8.96628e-06
9.18309e-06
9.39945e-06
9.59144e-06
9.73302e-06
9.82218e-06
9.88146e-06
9.94825e-06
1.00535e-05
1.01925e-05
1.03205e-05
1.0406e-05
1.05078e-05
1.07225e-05
1.08934e-05
1.05396e-05
9.72849e-06
8.9048e-06
8.65656e-06
8.80115e-06
9.00971e-06
9.22321e-06
9.45278e-06
9.66535e-06
9.8324e-06
9.94988e-06
1.00363e-05
1.01243e-05
1.02423e-05
1.0388e-05
1.05214e-05
1.0611e-05
1.06995e-05
1.08624e-05
1.09698e-05
1.06197e-05
9.84633e-06
9.06295e-06
8.76856e-06
8.83519e-06
9.00235e-06
9.21136e-06
9.45292e-06
9.68594e-06
9.87901e-06
1.00256e-05
1.01406e-05
1.02531e-05
1.03898e-05
1.05504e-05
1.06994e-05
1.08038e-05
1.08881e-05
1.10035e-05
1.10427e-05
1.06808e-05
9.9277e-06
9.13287e-06
8.77504e-06
8.76761e-06
8.90652e-06
9.12241e-06
9.38308e-06
9.6412e-06
9.86401e-06
1.00435e-05
1.01925e-05
1.03377e-05
1.05044e-05
1.06938e-05
1.08736e-05
1.10095e-05
1.11077e-05
1.11935e-05
1.11671e-05
1.07598e-05
1.00049e-05
9.06786e-06
8.58384e-06
8.51902e-06
8.66257e-06
8.9173e-06
9.22226e-06
9.52387e-06
9.78956e-06
1.0012e-05
1.02043e-05
1.0392e-05
1.05992e-05
1.08295e-05
1.10582e-05
1.12559e-05
1.14136e-05
1.15238e-05
1.14495e-05
1.09428e-05
)
;

boundaryField
{
    movingWall
    {
        type            zeroGradient;
    }
    fixedWalls
    {
        type            zeroGradient;
    }
    left
    {
        type            cyclic;
    }
    right
    {
        type            cyclic;
    }
    frontAndBack
    {
        type            empty;
    }
}


// ************************************************************************* //
