/*--------------------------------*- C++ -*----------------------------------*\
  =========                 |
  \\      /  F ield         | OpenFOAM: The Open Source CFD Toolbox
   \\    /   O peration     | Website:  https://openfoam.org
    \\  /    A nd           | Version:  8
     \\/     M anipulation  |
\*---------------------------------------------------------------------------*/
FoamFile
{
    version     2.0;
    format      ascii;
    class       surfaceScalarField;
    location    "0.81";
    object      phi;
}
// * * * * * * * * * * * * * * * * * * * * * * * * * * * * * * * * * * * * * //

dimensions      [0 3 -1 0 0 0 0];

internalField   nonuniform List<scalar> 
760
(
1.24813e-06
3.87219e-12
1.24813e-06
6.27862e-12
1.24812e-06
5.55262e-12
1.24812e-06
5.25169e-12
1.24811e-06
4.32764e-12
1.24811e-06
3.38056e-12
1.24811e-06
2.49744e-12
1.24811e-06
1.70727e-12
1.2481e-06
1.00146e-12
1.2481e-06
3.43195e-13
1.2481e-06
-3.12995e-13
1.24811e-06
-1.00581e-12
1.24811e-06
-1.76468e-12
1.24811e-06
-2.61925e-12
1.24811e-06
-3.59579e-12
1.24812e-06
-4.69761e-12
1.24812e-06
-5.86902e-12
1.24813e-06
-6.65059e-12
1.24814e-06
-6.21386e-12
-1.48307e-12
3.74443e-06
4.11501e-12
3.74442e-06
1.15027e-11
3.74441e-06
1.3742e-11
3.74441e-06
1.348e-11
3.7444e-06
1.17898e-11
3.74439e-06
9.70549e-12
3.74439e-06
7.61471e-12
3.74438e-06
5.6392e-12
3.74438e-06
3.77296e-12
3.74438e-06
1.95832e-12
3.74438e-06
1.23329e-13
3.74438e-06
-1.80195e-12
3.74438e-06
-3.88507e-12
3.74438e-06
-6.19783e-12
3.74439e-06
-8.7933e-12
3.7444e-06
-1.16286e-11
3.74441e-06
-1.4414e-11
3.74441e-06
-1.60707e-11
3.74442e-06
-1.42596e-11
-6.39239e-12
6.24084e-06
2.72613e-12
6.24084e-06
1.35229e-11
6.24083e-06
1.8888e-11
6.24083e-06
1.97409e-11
6.24082e-06
1.81556e-11
6.24081e-06
1.55936e-11
6.24081e-06
1.2728e-11
6.24081e-06
9.83921e-12
6.2408e-06
6.99705e-12
6.2408e-06
4.16982e-12
6.2408e-06
1.28074e-12
6.2408e-06
-1.76387e-12
6.2408e-06
-5.06554e-12
6.2408e-06
-8.72507e-12
6.24081e-06
-1.28002e-11
6.24081e-06
-1.71755e-11
6.24082e-06
-2.13197e-11
6.24083e-06
-2.36979e-11
6.24083e-06
-2.13533e-11
-1.17407e-11
8.73747e-06
-1.42456e-13
8.73748e-06
1.33947e-11
8.73747e-06
2.10325e-11
8.73747e-06
2.32458e-11
8.73747e-06
2.22724e-11
8.73746e-06
1.97799e-11
8.73746e-06
1.66251e-11
8.73745e-06
1.32305e-11
8.73745e-06
9.75937e-12
8.73745e-06
6.22911e-12
8.73745e-06
2.58013e-12
8.73745e-06
-1.28353e-12
8.73745e-06
-5.47424e-12
8.73745e-06
-1.00899e-11
8.73745e-06
-1.517e-11
8.73745e-06
-2.05278e-11
8.73746e-06
-2.54807e-11
8.73746e-06
-2.83108e-11
8.73747e-06
-2.59262e-11
-1.5744e-11
1.12344e-05
-2.86357e-12
1.12344e-05
1.16094e-11
1.12344e-05
2.0608e-11
1.12344e-05
2.40011e-11
1.12344e-05
2.38388e-11
1.12344e-05
2.17805e-11
1.12344e-05
1.87511e-11
1.12344e-05
1.52624e-11
1.12344e-05
1.1554e-11
1.12344e-05
7.69701e-12
1.12344e-05
3.665e-12
1.12344e-05
-6.17984e-13
1.12344e-05
-5.24712e-12
1.12344e-05
-1.03058e-11
1.12344e-05
-1.58036e-11
1.12344e-05
-2.15193e-11
1.12344e-05
-2.67309e-11
1.12344e-05
-2.97735e-11
1.12344e-05
-2.77473e-11
-1.81583e-11
1.37317e-05
-5.06993e-12
1.37318e-05
8.7995e-12
1.37318e-05
1.81449e-11
1.37318e-05
2.22965e-11
1.37318e-05
2.29198e-11
1.37318e-05
2.14961e-11
1.37318e-05
1.89097e-11
1.37318e-05
1.56962e-11
1.37318e-05
1.21401e-11
1.37318e-05
8.35723e-12
1.37318e-05
4.36024e-12
1.37318e-05
1.06059e-13
1.37318e-05
-4.47077e-12
1.37318e-05
-9.42808e-12
1.37317e-05
-1.47572e-11
1.37317e-05
-2.02457e-11
1.37317e-05
-2.52376e-11
1.37317e-05
-2.82965e-11
1.37317e-05
-2.69233e-11
-1.8797e-11
1.62295e-05
-6.56621e-12
1.62295e-05
5.47112e-12
1.62295e-05
1.4201e-11
1.62295e-05
1.85928e-11
1.62295e-05
1.98294e-11
1.62295e-05
1.91042e-11
1.62295e-05
1.71731e-11
1.62295e-05
1.45332e-11
1.62295e-05
1.14762e-11
1.62295e-05
8.14506e-12
1.62295e-05
4.58622e-12
1.62295e-05
7.92455e-13
1.62295e-05
-3.26756e-12
1.62295e-05
-7.62577e-12
1.62295e-05
-1.22698e-11
1.62295e-05
-1.70345e-11
1.62295e-05
-2.14075e-11
1.62295e-05
-2.4295e-11
1.62295e-05
-2.37462e-11
-1.76922e-11
1.87278e-05
-7.23234e-12
1.87278e-05
2.02577e-12
1.87278e-05
9.3157e-12
1.87278e-05
1.34245e-11
1.87278e-05
1.50275e-11
1.87278e-05
1.49674e-11
1.87278e-05
1.3808e-11
1.87278e-05
1.19556e-11
1.87278e-05
9.6725e-12
1.87278e-05
7.10647e-12
1.87278e-05
4.32671e-12
1.87278e-05
1.35731e-12
1.87278e-05
-1.80078e-12
1.87278e-05
-5.15742e-12
1.87278e-05
-8.7075e-12
1.87278e-05
-1.23575e-11
1.87278e-05
-1.57862e-11
1.87278e-05
-1.83092e-11
1.87278e-05
-1.86235e-11
-1.50129e-11
2.12267e-05
-7.03705e-12
2.12267e-05
-1.23035e-12
2.12267e-05
3.97772e-12
2.12267e-05
7.34045e-12
2.12267e-05
9.04943e-12
2.12267e-05
9.56442e-12
2.12267e-05
9.21551e-12
2.12267e-05
8.27865e-12
2.12267e-05
6.95581e-12
2.12267e-05
5.37767e-12
2.12267e-05
3.62247e-12
2.12267e-05
1.73784e-12
2.12267e-05
-2.47376e-13
2.12267e-05
-2.32388e-12
2.12267e-05
-4.49839e-12
2.12267e-05
-6.75807e-12
2.12267e-05
-8.99189e-12
2.12267e-05
-1.09551e-11
2.12267e-05
-1.20496e-11
-1.10282e-11
2.37261e-05
-6.04901e-12
2.37261e-05
-4.08439e-12
2.37261e-05
-1.39337e-12
2.37261e-05
8.70192e-13
2.37261e-05
2.45916e-12
2.37261e-05
3.43893e-12
2.37261e-05
3.88325e-12
2.37261e-05
3.91152e-12
2.37261e-05
3.64178e-12
2.37261e-05
3.16949e-12
2.37261e-05
2.5695e-12
2.37261e-05
1.90523e-12
2.37261e-05
1.22983e-12
2.37261e-05
5.71669e-13
2.37261e-05
-8.42099e-14
2.37261e-05
-8.00402e-13
2.37261e-05
-1.6713e-12
2.37261e-05
-2.89047e-12
2.37261e-05
-4.58635e-12
-6.09092e-12
2.62261e-05
-4.43203e-12
2.62261e-05
-6.41282e-12
2.62261e-05
-6.45101e-12
2.62261e-05
-5.4931e-12
2.62261e-05
-4.17952e-12
2.62261e-05
-2.83583e-12
2.62261e-05
-1.65141e-12
2.62261e-05
-6.77238e-13
2.62261e-05
1.06693e-13
2.62261e-05
7.48524e-13
2.62261e-05
1.31155e-12
2.62261e-05
1.86984e-12
2.62261e-05
2.49954e-12
2.62261e-05
3.25184e-12
2.62261e-05
4.11363e-12
2.62261e-05
4.96486e-12
2.62261e-05
5.53085e-12
2.62261e-05
5.20958e-12
2.62261e-05
3.15478e-12
-6.28637e-13
2.87267e-05
-2.42878e-12
2.87267e-05
-8.17061e-12
2.87267e-05
-1.09119e-11
2.87267e-05
-1.12956e-11
2.87267e-05
-1.03181e-11
2.87267e-05
-8.68147e-12
2.87267e-05
-6.83197e-12
2.87267e-05
-4.99177e-12
2.87267e-05
-3.24256e-12
2.87267e-05
-1.58604e-12
2.87267e-05
2.61768e-14
2.87267e-05
1.67784e-12
2.87267e-05
3.46929e-12
2.87267e-05
5.48072e-12
2.87267e-05
7.71571e-12
2.87267e-05
1.00242e-11
2.87267e-05
1.19935e-11
2.87267e-05
1.26705e-11
2.87267e-05
1.05312e-11
4.86973e-12
3.12278e-05
-3.36136e-13
3.12278e-05
-9.37026e-12
3.12279e-05
-1.45353e-11
3.12279e-05
-1.61157e-11
3.12279e-05
-1.54301e-11
3.12279e-05
-1.35348e-11
3.12279e-05
-1.11128e-11
3.12279e-05
-8.54393e-12
3.12279e-05
-6.0018e-12
3.12279e-05
-3.53186e-12
3.12279e-05
-1.09646e-12
3.12279e-05
1.39977e-12
3.12279e-05
4.08366e-12
3.12279e-05
7.07085e-12
3.12279e-05
1.03981e-11
3.12279e-05
1.39185e-11
3.12279e-05
1.7138e-11
3.12279e-05
1.88358e-11
3.12279e-05
1.68897e-11
9.87493e-12
3.37296e-05
1.52895e-12
3.37296e-05
-1.00491e-11
3.37296e-05
-1.70964e-11
3.37296e-05
-1.9551e-11
3.37296e-05
-1.90171e-11
3.37296e-05
-1.68712e-11
3.37296e-05
-1.39955e-11
3.37296e-05
-1.08955e-11
3.37296e-05
-7.81294e-12
3.37296e-05
-4.82058e-12
3.37296e-05
-1.88232e-12
3.37296e-05
1.11217e-12
3.37296e-05
4.31702e-12
3.37296e-05
7.88678e-12
3.37296e-05
1.19051e-11
3.37296e-05
1.62628e-11
3.37296e-05
2.0451e-11
3.37296e-05
2.30908e-11
3.37296e-05
2.15915e-11
1.38455e-11
3.62318e-05
2.87292e-12
3.62318e-05
-1.02234e-11
3.62318e-05
-1.83549e-11
3.62318e-05
-2.1208e-11
3.62318e-05
-2.06239e-11
3.62318e-05
-1.82427e-11
3.62318e-05
-1.50808e-11
3.62318e-05
-1.17157e-11
3.62318e-05
-8.41833e-12
3.62318e-05
-5.2648e-12
3.62318e-05
-2.20909e-12
3.62318e-05
8.75381e-13
3.62318e-05
4.16561e-12
3.62318e-05
7.85119e-12
3.62318e-05
1.20686e-11
3.62318e-05
1.67761e-11
3.62318e-05
2.15215e-11
3.62318e-05
2.49002e-11
3.62318e-05
2.40461e-11
1.62638e-11
3.87345e-05
3.47624e-12
3.87345e-05
-9.83076e-12
3.87345e-05
-1.80281e-11
3.87345e-05
-2.07104e-11
3.87345e-05
-1.98839e-11
3.87345e-05
-1.73473e-11
3.87345e-05
-1.41478e-11
3.87345e-05
-1.08584e-11
3.87345e-05
-7.72927e-12
3.87345e-05
-4.81281e-12
3.87345e-05
-2.04497e-12
3.87345e-05
7.11702e-13
3.87345e-05
3.64367e-12
3.87345e-05
6.96007e-12
3.87345e-05
1.08423e-11
3.87345e-05
1.53325e-11
3.87345e-05
2.01016e-11
3.87345e-05
2.38727e-11
3.87345e-05
2.37658e-11
1.6687e-11
4.12375e-05
3.24568e-12
4.12375e-05
-8.68021e-12
4.12375e-05
-1.57895e-11
4.12375e-05
-1.7755e-11
4.12375e-05
-1.66205e-11
4.12375e-05
-1.41487e-11
4.12375e-05
-1.12701e-11
4.12375e-05
-8.46107e-12
4.12375e-05
-5.90201e-12
4.12375e-05
-3.60255e-12
4.12375e-05
-1.48238e-12
4.12375e-05
5.90952e-13
4.12375e-05
2.78935e-12
4.12375e-05
5.31279e-12
4.12375e-05
8.35951e-12
4.12375e-05
1.20454e-11
4.12375e-05
1.62114e-11
4.12375e-05
1.98698e-11
4.12375e-05
2.04635e-11
1.48236e-11
4.37409e-05
2.31185e-12
4.37409e-05
-6.4204e-12
4.37409e-05
-1.13235e-11
4.37409e-05
-1.22646e-11
4.37409e-05
-1.1037e-11
4.37408e-05
-9.05621e-12
4.37408e-05
-6.95932e-12
4.37408e-05
-5.04431e-12
4.37408e-05
-3.39866e-12
4.37408e-05
-1.99425e-12
4.37408e-05
-7.51786e-13
4.37408e-05
4.3324e-13
4.37408e-05
1.68868e-12
4.37408e-05
3.16547e-12
4.37408e-05
5.02545e-12
4.37408e-05
7.40545e-12
4.37409e-05
1.03129e-11
4.37409e-05
1.31737e-11
4.37409e-05
1.4169e-11
1.05642e-11
4.62444e-05
8.83581e-13
4.62444e-05
-3.00998e-12
4.62444e-05
-4.90336e-12
4.62444e-05
-5.02426e-12
4.62444e-05
-4.25869e-12
4.62444e-05
-3.30886e-12
4.62444e-05
-2.40211e-12
4.62444e-05
-1.63885e-12
4.62444e-05
-1.03703e-12
4.62444e-05
-5.67366e-13
4.62444e-05
-1.81832e-13
4.62444e-05
1.75428e-13
4.62444e-05
5.66336e-13
4.62444e-05
1.0557e-12
4.62444e-05
1.70438e-12
4.62444e-05
2.57678e-12
4.62444e-05
3.75325e-12
4.62444e-05
5.09774e-12
4.62444e-05
5.91202e-12
4.60712e-12
4.87481e-05
4.87481e-05
4.87481e-05
4.87481e-05
4.87481e-05
4.87481e-05
4.87481e-05
4.87481e-05
4.87481e-05
4.87481e-05
4.87481e-05
4.87481e-05
4.87481e-05
4.87481e-05
4.87481e-05
4.87481e-05
4.87481e-05
4.87481e-05
4.87481e-05
)
;

boundaryField
{
    movingWall
    {
        type            calculated;
        value           uniform 0;
    }
    fixedWalls
    {
        type            calculated;
        value           uniform 0;
    }
    left
    {
        type            cyclic;
        value           nonuniform List<scalar> 
20
(
-3.87345e-05
-3.62318e-05
-3.37296e-05
-3.12278e-05
-2.87267e-05
-2.62261e-05
-2.37261e-05
-2.12267e-05
-1.87278e-05
-1.62295e-05
-1.37317e-05
-1.12344e-05
-8.73747e-06
-6.24084e-06
-3.74443e-06
-1.24814e-06
-4.12375e-05
-4.37409e-05
-4.62444e-05
-4.87481e-05
)
;
    }
    right
    {
        type            cyclic;
        value           nonuniform List<scalar> 
20
(
3.87345e-05
3.62318e-05
3.37296e-05
3.12278e-05
2.87267e-05
2.62261e-05
2.37261e-05
2.12267e-05
1.87278e-05
1.62295e-05
1.37317e-05
1.12344e-05
8.73747e-06
6.24084e-06
3.74443e-06
1.24814e-06
4.12375e-05
4.37409e-05
4.62444e-05
4.87481e-05
)
;
    }
    frontAndBack
    {
        type            empty;
        value           nonuniform List<scalar> 0();
    }
}


// ************************************************************************* //
