/*--------------------------------*- C++ -*----------------------------------*\
  =========                 |
  \\      /  F ield         | OpenFOAM: The Open Source CFD Toolbox
   \\    /   O peration     | Website:  https://openfoam.org
    \\  /    A nd           | Version:  8
     \\/     M anipulation  |
\*---------------------------------------------------------------------------*/
FoamFile
{
    version     2.0;
    format      ascii;
    class       volScalarField;
    location    "16.5";
    object      p;
}
// * * * * * * * * * * * * * * * * * * * * * * * * * * * * * * * * * * * * * //

dimensions      [0 2 -2 0 0 0 0];

internalField   nonuniform List<scalar> 
11600
(
-1.86304e-07
-6.91047e-07
-5.76013e-07
-2.35531e-07
4.52634e-07
1.4482e-06
2.74775e-06
4.34903e-06
6.25055e-06
8.45201e-06
1.09538e-05
1.37563e-05
1.68603e-05
2.02664e-05
2.39755e-05
2.79885e-05
3.23063e-05
3.69298e-05
4.18598e-05
4.70971e-05
5.26425e-05
5.84969e-05
6.4661e-05
7.11355e-05
7.79212e-05
8.50185e-05
9.24281e-05
0.00010015
0.000108186
0.000116534
0.000125196
0.000134172
0.000143461
0.000153063
0.000162977
0.000173203
0.000183739
0.000194586
0.000205741
0.000217203
0.000228971
0.000241043
0.000253417
0.000266093
0.000279069
0.000292343
0.000305915
0.000319785
0.000333954
0.000348426
0.000363204
0.000378295
0.000393711
0.000409467
0.000425581
0.000442113
0.000459156
0.00047586
0.000497171
0.000507509
-5.9678e-08
-4.50571e-07
-2.57292e-07
1.11617e-07
8.1312e-07
1.81335e-06
3.11314e-06
4.71307e-06
6.61247e-06
8.81101e-06
1.1309e-05
1.41071e-05
1.7206e-05
2.06067e-05
2.431e-05
2.83167e-05
3.26278e-05
3.72441e-05
4.21665e-05
4.73959e-05
5.2933e-05
5.87787e-05
6.49338e-05
7.13991e-05
7.81751e-05
8.52625e-05
9.26619e-05
0.000100374
0.000108398
0.000116736
0.000125387
0.000134352
0.00014363
0.00015322
0.000163123
0.000173337
0.000183862
0.000194697
0.000205841
0.000217292
0.00022905
0.000241111
0.000253477
0.000266143
0.000279111
0.000292378
0.000305944
0.000319811
0.00033398
0.000348456
0.000363244
0.000378355
0.000393807
0.000409626
0.000425855
0.000442586
0.000459914
0.000477725
0.000498382
0.000515729
-4.10753e-07
-8.016e-07
-5.81281e-07
-2.014e-07
5.08231e-07
1.51298e-06
2.81448e-06
4.41437e-06
6.31279e-06
8.50982e-06
1.10058e-05
1.38014e-05
1.68974e-05
2.02948e-05
2.39945e-05
2.79973e-05
3.23043e-05
3.69163e-05
4.18342e-05
4.70589e-05
5.25913e-05
5.84321e-05
6.45824e-05
7.10427e-05
7.78138e-05
8.48964e-05
9.2291e-05
9.99982e-05
0.000108018
0.000116352
0.000124999
0.000133959
0.000143232
0.000152819
0.000162718
0.000172929
0.000183451
0.000194283
0.000205424
0.000216872
0.000228627
0.000240687
0.00025305
0.000265715
0.00027868
0.000291944
0.000305508
0.00031937
0.000333533
0.000347999
0.000362773
0.000377863
0.00039328
0.000409043
0.00042518
0.000441739
0.000458757
0.000476237
0.000495184
0.00051253
-9.2917e-07
-1.31709e-06
-1.07671e-06
-6.8637e-07
3.12901e-08
1.04082e-06
2.34435e-06
3.9441e-06
5.84085e-06
8.0352e-06
1.05278e-05
1.33193e-05
1.64108e-05
1.98031e-05
2.34972e-05
2.7494e-05
3.17946e-05
3.63999e-05
4.13108e-05
4.65283e-05
5.20533e-05
5.78867e-05
6.40294e-05
7.04822e-05
7.72457e-05
8.43208e-05
9.1708e-05
9.9408e-05
0.000107421
0.000115748
0.000124388
0.000133341
0.000142609
0.000152189
0.000162082
0.000172288
0.000182805
0.000193633
0.00020477
0.000216215
0.000227967
0.000240023
0.000252383
0.000265045
0.000278007
0.000291268
0.000304827
0.000318684
0.000332839
0.000347294
0.000362054
0.000377124
0.000392515
0.000408241
0.000424327
0.000440805
0.000457704
0.000475068
0.000493167
0.000510914
-1.77017e-06
-2.15857e-06
-1.90812e-06
-1.5123e-06
-7.90175e-07
2.21967e-07
1.52648e-06
3.12571e-06
5.02065e-06
7.21216e-06
9.70113e-06
1.24885e-05
1.55751e-05
1.89621e-05
2.26504e-05
2.6641e-05
3.0935e-05
3.55334e-05
4.04372e-05
4.56474e-05
5.11649e-05
5.69909e-05
6.31261e-05
6.95714e-05
7.63277e-05
8.33958e-05
9.07762e-05
9.84697e-05
0.000106477
0.000114797
0.000123432
0.00013238
0.000141643
0.000151219
0.000161109
0.000171311
0.000181825
0.000192651
0.000203787
0.000215231
0.000226982
0.000239038
0.000251397
0.000264058
0.000277019
0.000290278
0.000303833
0.000317683
0.000331828
0.000346267
0.000361001
0.000376034
0.000391369
0.000407012
0.000422971
0.000439254
0.000455862
0.000472799
0.000490086
0.000507299
-2.90571e-06
-3.29581e-06
-3.04013e-06
-2.64122e-06
-1.91665e-06
-9.03535e-07
4.00697e-07
1.99848e-06
3.89091e-06
6.07898e-06
8.56372e-06
1.13462e-05
1.44273e-05
1.78083e-05
2.149e-05
2.54737e-05
2.97603e-05
3.4351e-05
3.92468e-05
4.44489e-05
4.99583e-05
5.5776e-05
6.19031e-05
6.83405e-05
7.5089e-05
8.21496e-05
8.9523e-05
9.72098e-05
0.000105211
0.000113525
0.000122155
0.000131099
0.000140357
0.00014993
0.000159817
0.000170017
0.00018053
0.000191355
0.000202491
0.000213936
0.000225688
0.000237745
0.000250107
0.000262769
0.000275731
0.000288989
0.000302541
0.000316386
0.00033052
0.000344942
0.000359651
0.000374645
0.000389923
0.000405484
0.000421325
0.00043744
0.000453813
0.000470419
0.000487202
0.000503961
-4.33875e-06
-4.73089e-06
-4.47324e-06
-4.07328e-06
-3.34799e-06
-2.33531e-06
-1.0326e-06
5.62697e-07
2.45174e-06
4.63559e-06
7.11538e-06
9.89219e-06
1.29671e-05
1.63412e-05
2.00157e-05
2.39915e-05
2.82699e-05
3.28521e-05
3.77392e-05
4.29324e-05
4.84329e-05
5.42417e-05
6.036e-05
6.67888e-05
7.35291e-05
8.05819e-05
8.79479e-05
9.56278e-05
0.000103622
0.000111931
0.000120556
0.000129495
0.00013875
0.000148321
0.000158206
0.000168405
0.000178919
0.000189745
0.000200883
0.00021233
0.000224085
0.000236147
0.000248512
0.000261178
0.000274143
0.000287403
0.000300955
0.000314796
0.000328922
0.000343329
0.000358014
0.00037297
0.000388192
0.000403673
0.0004194
0.000435357
0.000451515
0.000467834
0.000484243
0.000500608
-6.07164e-06
-6.46605e-06
-6.20844e-06
-5.80924e-06
-5.0848e-06
-4.07384e-06
-2.77378e-06
-1.182e-06
7.02703e-07
2.88147e-06
5.35546e-06
8.1258e-06
1.11936e-05
1.45601e-05
1.82263e-05
2.21935e-05
2.64629e-05
3.10357e-05
3.59132e-05
4.10968e-05
4.65875e-05
5.23867e-05
5.84955e-05
6.49151e-05
7.16466e-05
7.8691e-05
8.60491e-05
9.37219e-05
0.00010171
0.000110013
0.000118633
0.000127569
0.000136821
0.00014639
0.000156274
0.000166475
0.00017699
0.000187819
0.00019896
0.000210412
0.000222173
0.000234241
0.000246613
0.000259286
0.000272257
0.000285523
0.000299078
0.00031292
0.000327042
0.000341439
0.000356104
0.00037103
0.000386205
0.000401618
0.00041725
0.000433079
0.000449069
0.000465175
0.000481325
0.000497421
-8.10534e-06
-8.50225e-06
-8.24571e-06
-7.84864e-06
-7.12641e-06
-6.11836e-06
-4.82201e-06
-3.23477e-06
-1.35537e-06
8.17343e-07
3.28457e-06
6.04748e-06
9.10724e-06
1.2465e-05
1.61221e-05
2.00797e-05
2.4339e-05
2.89016e-05
3.37687e-05
3.89416e-05
4.44218e-05
5.02106e-05
5.63092e-05
6.27189e-05
6.94409e-05
7.64763e-05
8.38262e-05
9.14913e-05
9.94726e-05
0.000107771
0.000116386
0.000125318
0.000134568
0.000144136
0.000154021
0.000164223
0.000174741
0.000185575
0.000196722
0.000208181
0.000219951
0.000232028
0.00024441
0.000257093
0.000270075
0.00028335
0.000296914
0.000310761
0.000324886
0.00033928
0.000353935
0.00036884
0.000383982
0.000399345
0.000414908
0.000430644
0.000446515
0.000462475
0.000478461
0.000494391
-1.044e-05
-1.08399e-05
-1.05851e-05
-1.01911e-05
-9.47215e-06
-8.46808e-06
-7.17646e-06
-5.59475e-06
-3.72166e-06
-1.55603e-06
9.03373e-07
3.65777e-06
6.70838e-06
1.00564e-05
1.37033e-05
1.76501e-05
2.18985e-05
2.64498e-05
3.13054e-05
3.64669e-05
4.19356e-05
4.77131e-05
5.38006e-05
6.01996e-05
6.69114e-05
7.39372e-05
8.12781e-05
8.89353e-05
9.69096e-05
0.000105202
0.000113812
0.000122742
0.00013199
0.000141558
0.000151445
0.00016165
0.000172172
0.000183012
0.000194167
0.000205636
0.000217416
0.000229506
0.000241901
0.0002546
0.000267596
0.000280886
0.000294465
0.000308325
0.000322459
0.00033686
0.000351516
0.000366414
0.00038154
0.000396876
0.000412398
0.000428077
0.000443877
0.000459753
0.000475649
0.000491499
-1.30753e-05
-1.34791e-05
-1.32264e-05
-1.28362e-05
-1.21215e-05
-1.11223e-05
-9.83639e-06
-8.26119e-06
-6.39547e-06
-4.23801e-06
-1.78756e-06
9.57161e-07
3.99744e-06
7.33459e-06
1.097e-05
1.4905e-05
1.91413e-05
2.36801e-05
2.85233e-05
3.36722e-05
3.91285e-05
4.48937e-05
5.09692e-05
5.73566e-05
6.40573e-05
7.10726e-05
7.8404e-05
8.60527e-05
9.40197e-05
0.000102306
0.000110912
0.000119839
0.000129086
0.000138654
0.000148543
0.000158752
0.000169281
0.000180128
0.000191294
0.000202775
0.000214569
0.000226674
0.000239088
0.000251805
0.000264821
0.000278133
0.000291732
0.000305613
0.000319767
0.000334185
0.000348854
0.000363762
0.000378891
0.000394223
0.000409732
0.000425392
0.000441166
0.000457012
0.000472882
0.00048872
-1.6011e-05
-1.64194e-05
-1.61693e-05
-1.57836e-05
-1.50738e-05
-1.40804e-05
-1.28011e-05
-1.12335e-05
-9.37616e-06
-7.22801e-06
-4.78771e-06
-2.05389e-06
9.74808e-07
4.29979e-06
7.92253e-06
1.18445e-05
1.60674e-05
2.05927e-05
2.54221e-05
3.05573e-05
3.6e-05
4.17517e-05
4.78142e-05
5.41889e-05
6.08776e-05
6.78817e-05
7.52028e-05
8.28423e-05
9.08015e-05
9.90814e-05
0.000107683
0.000116606
0.000125853
0.000135421
0.000145313
0.000155528
0.000166064
0.000176922
0.000188099
0.000199595
0.000211407
0.000223532
0.000235966
0.000248708
0.00026175
0.000275089
0.000288717
0.000302628
0.000316811
0.000331258
0.000345955
0.000360888
0.000376041
0.000391393
0.00040692
0.000422594
0.000438383
0.000454248
0.000470145
0.000486027
-1.92468e-05
-1.96603e-05
-1.94134e-05
-1.90328e-05
-1.83286e-05
-1.73418e-05
-1.607e-05
-1.45109e-05
-1.26632e-05
-1.05255e-05
-8.09655e-06
-5.37491e-06
-2.35909e-06
9.52415e-07
4.56116e-06
8.46877e-06
1.26769e-05
1.71873e-05
2.20017e-05
2.71219e-05
3.25496e-05
3.82867e-05
4.43348e-05
5.06957e-05
5.73713e-05
6.43632e-05
7.16731e-05
7.93028e-05
8.72535e-05
9.55265e-05
0.000104123
0.000113043
0.000122288
0.000131859
0.000141754
0.000151975
0.00016252
0.000173389
0.000184581
0.000196094
0.000207926
0.000220075
0.000232536
0.000245306
0.00025838
0.000271754
0.000285419
0.000299368
0.000313592
0.00032808
0.00034282
0.000357797
0.000372993
0.000388389
0.000403962
0.000419684
0.000435525
0.00045145
0.000467419
0.000483393
-2.27822e-05
-2.32013e-05
-2.2958e-05
-2.25831e-05
-2.18852e-05
-2.09058e-05
-1.96425e-05
-1.8093e-05
-1.62559e-05
-1.41299e-05
-1.17136e-05
-9.0054e-06
-6.00381e-06
-2.70718e-06
8.86159e-07
4.77792e-06
8.96987e-06
1.34638e-05
1.82617e-05
2.33654e-05
2.87767e-05
3.44976e-05
4.05301e-05
4.68759e-05
5.35372e-05
6.05158e-05
6.78136e-05
7.54324e-05
8.33738e-05
9.16393e-05
0.00010023
0.000109147
0.000118391
0.000127963
0.000137862
0.00014809
0.000158646
0.000169528
0.000180737
0.00019227
0.000204125
0.0002163
0.000228792
0.000241597
0.00025471
0.000268125
0.000281835
0.000295832
0.000310108
0.000324651
0.000339448
0.000354486
0.000369746
0.00038521
0.000400854
0.000416655
0.000432582
0.000448604
0.000464686
0.000480791
-2.66164e-05
-2.70416e-05
-2.68022e-05
-2.64337e-05
-2.57429e-05
-2.47717e-05
-2.3518e-05
-2.19791e-05
-2.01538e-05
-1.80406e-05
-1.56382e-05
-1.29449e-05
-9.95889e-06
-6.6786e-06
-3.1022e-06
7.72127e-07
4.94628e-06
9.42221e-06
1.42019e-05
1.92874e-05
2.46807e-05
3.03839e-05
3.63991e-05
4.27284e-05
4.9374e-05
5.6338e-05
6.36224e-05
7.12293e-05
7.91604e-05
8.74174e-05
9.60018e-05
0.000104915
0.000114158
0.000123731
0.000133635
0.000143871
0.000154437
0.000165335
0.000176562
0.000188117
0.000199999
0.000212205
0.000224732
0.000237577
0.000250734
0.000264198
0.000277962
0.000292017
0.000306356
0.000320966
0.000335836
0.000350952
0.000366296
0.000381849
0.000397592
0.000413498
0.000429543
0.000445696
0.000461925
0.000478196
-3.07485e-05
-3.11802e-05
-3.09452e-05
-3.05838e-05
-2.99008e-05
-2.89389e-05
-2.76956e-05
-2.61685e-05
-2.43561e-05
-2.22571e-05
-1.98699e-05
-1.71927e-05
-1.42239e-05
-1.09615e-05
-7.40369e-06
-3.5485e-06
6.061e-07
5.06217e-06
9.82186e-06
1.48873e-05
2.02608e-05
2.59446e-05
3.19409e-05
3.82521e-05
4.48805e-05
5.18283e-05
5.90979e-05
6.66915e-05
7.4611e-05
8.28585e-05
9.14356e-05
0.000100344
0.000109585
0.00011916
0.000129069
0.000139312
0.000149891
0.000160804
0.000172052
0.000183632
0.000195544
0.000207784
0.000220351
0.000233241
0.000246448
0.000259968
0.000273794
0.000287917
0.00030233
0.000317021
0.000331979
0.000347189
0.000362635
0.0003783
0.000394163
0.000410203
0.000426393
0.000442707
0.000459117
0.000475596
-3.51775e-05
-3.56163e-05
-3.53861e-05
-3.50325e-05
-3.43582e-05
-3.34064e-05
-3.21747e-05
-3.06604e-05
-2.88622e-05
-2.67786e-05
-2.44079e-05
-2.17485e-05
-1.87983e-05
-1.55555e-05
-1.20181e-05
-8.18388e-06
-4.05075e-06
3.83518e-07
5.12123e-06
1.01647e-05
1.55164e-05
2.11788e-05
2.71544e-05
3.34455e-05
4.00549e-05
4.69849e-05
5.4238e-05
6.18167e-05
6.97232e-05
7.79599e-05
8.65287e-05
9.54316e-05
0.00010467
0.000114246
0.000124159
0.000134411
0.000145003
0.000155933
0.000167202
0.000178809
0.000190753
0.000203032
0.000215643
0.000228583
0.000241846
0.000255429
0.000269325
0.000283526
0.000298024
0.000312808
0.000327867
0.000343188
0.000358755
0.000374551
0.000390558
0.000406753
0.000423115
0.000439617
0.000456234
0.00047294
-3.99023e-05
-4.03488e-05
-4.01238e-05
-3.97788e-05
-3.9114e-05
-3.81733e-05
-3.69542e-05
-3.54539e-05
-3.36711e-05
-3.16043e-05
-2.92517e-05
-2.66115e-05
-2.36818e-05
-2.04604e-05
-1.69452e-05
-1.31339e-05
-9.02433e-06
-4.61397e-06
9.96376e-08
5.11903e-06
1.04468e-05
1.60857e-05
2.20383e-05
2.83075e-05
3.48958e-05
4.18059e-05
4.90407e-05
5.66026e-05
6.44945e-05
7.27188e-05
8.12779e-05
9.01741e-05
9.94091e-05
0.000108985
0.000118902
0.000129163
0.000139767
0.000150715
0.000162008
0.000173644
0.000185623
0.000197943
0.000210601
0.000223595
0.000236921
0.000250574
0.000264547
0.000278835
0.000293428
0.000308318
0.000323492
0.000338939
0.000354643
0.00037059
0.00038676
0.000403134
0.000419691
0.000436407
0.000453259
0.00047022
-4.49217e-05
-4.53763e-05
-4.51572e-05
-4.48215e-05
-4.41671e-05
-4.32385e-05
-4.20331e-05
-4.0548e-05
-3.8782e-05
-3.67333e-05
-3.44004e-05
-3.17812e-05
-2.88737e-05
-2.56756e-05
-2.21847e-05
-1.83986e-05
-1.43147e-05
-9.93045e-06
-5.24325e-06
-2.503e-07
5.05124e-06
1.06643e-05
1.65917e-05
2.28364e-05
2.94013e-05
3.62894e-05
4.35036e-05
5.10468e-05
5.8922e-05
6.71322e-05
7.56799e-05
8.45678e-05
9.3798e-05
0.000103373
0.000113293
0.000123562
0.000134179
0.000145146
0.000156462
0.000168129
0.000180145
0.000192508
0.000205218
0.000218271
0.000231664
0.000245393
0.000259452
0.000273834
0.000288533
0.000303539
0.000318842
0.000334429
0.000350287
0.000366401
0.000382755
0.000399329
0.000416103
0.000433054
0.000450167
0.00046741
-5.02344e-05
-5.06978e-05
-5.0485e-05
-5.01593e-05
-4.95163e-05
-4.86008e-05
-4.74102e-05
-4.59416e-05
-4.41937e-05
-4.21648e-05
-3.98532e-05
-3.72568e-05
-3.43735e-05
-3.12008e-05
-2.77364e-05
-2.39775e-05
-1.99217e-05
-1.55661e-05
-1.09077e-05
-5.94377e-06
-6.71074e-07
4.91348e-06
1.0813e-05
1.70307e-05
2.35697e-05
3.04332e-05
3.76244e-05
4.51465e-05
5.30029e-05
6.11967e-05
6.9731e-05
7.86087e-05
8.78324e-05
9.74045e-05
0.000107327
0.000117603
0.000128233
0.000139218
0.000150559
0.000162257
0.000174312
0.000186721
0.000199485
0.000212601
0.000226066
0.000239877
0.000254028
0.000268514
0.000283327
0.00029846
0.000313902
0.000329643
0.00034567
0.000361969
0.000378523
0.000395317
0.000412331
0.000429545
0.000446936
0.000464485
-5.58391e-05
-5.63118e-05
-5.61058e-05
-5.5791e-05
-5.51601e-05
-5.42588e-05
-5.30842e-05
-5.16334e-05
-4.99052e-05
-4.78977e-05
-4.56092e-05
-4.30376e-05
-4.01805e-05
-3.70354e-05
-3.35997e-05
-2.98706e-05
-2.58453e-05
-2.15209e-05
-1.68941e-05
-1.19619e-05
-6.72086e-06
-1.16763e-06
4.70118e-06
1.0889e-05
1.73991e-05
2.42352e-05
3.14006e-05
3.8899e-05
4.67338e-05
5.49088e-05
6.34272e-05
7.22924e-05
8.15075e-05
9.10755e-05
0.000100999
0.00011128
0.000121922
0.000132925
0.000144291
0.000156021
0.000168115
0.000180573
0.000193394
0.000206576
0.000220117
0.000234015
0.000248264
0.00026286
0.000277797
0.000293066
0.00030866
0.000324567
0.000340776
0.000357274
0.000374047
0.000391079
0.000408351
0.000425846
0.000443541
0.000461418
-6.17343e-05
-6.22169e-05
-6.20181e-05
-6.1715e-05
-6.10971e-05
-6.02109e-05
-5.90536e-05
-5.76222e-05
-5.59152e-05
-5.3931e-05
-5.16675e-05
-4.91227e-05
-4.6294e-05
-4.31787e-05
-3.97742e-05
-3.60774e-05
-3.20854e-05
-2.77949e-05
-2.32026e-05
-1.83052e-05
-1.30988e-05
-7.58008e-06
-1.74519e-06
4.40949e-06
1.08877e-05
1.76931e-05
2.48296e-05
3.23011e-05
4.01115e-05
4.82646e-05
5.67644e-05
6.56145e-05
7.48186e-05
8.43802e-05
9.43024e-05
0.000104588
0.00011524
0.00012626
0.000137651
0.000149412
0.000161547
0.000174053
0.000186933
0.000200184
0.000213805
0.000227794
0.000242148
0.000256861
0.000271928
0.000287343
0.000303097
0.000319182
0.000335587
0.000352299
0.000369306
0.000386592
0.000404141
0.000421936
0.000439957
0.000458183
-6.79182e-05
-6.84113e-05
-6.82203e-05
-6.79295e-05
-6.73256e-05
-6.64558e-05
-6.5317e-05
-6.39065e-05
-6.22225e-05
-6.02633e-05
-5.8027e-05
-5.55111e-05
-5.2713e-05
-4.96301e-05
-4.62592e-05
-4.25975e-05
-3.86416e-05
-3.43881e-05
-2.98335e-05
-2.4974e-05
-1.98057e-05
-1.43248e-05
-8.52735e-06
-2.40929e-06
4.03335e-06
1.08046e-05
1.79087e-05
2.53498e-05
3.31322e-05
4.12602e-05
4.97382e-05
5.85702e-05
6.77605e-05
7.7313e-05
8.72315e-05
9.75195e-05
0.00010818
0.000119216
0.000130629
0.000142422
0.000154596
0.000167153
0.000180092
0.000193414
0.000207119
0.000221203
0.000235664
0.0002505
0.000265704
0.000281272
0.000297197
0.00031347
0.000330082
0.000347022
0.000364277
0.000381834
0.000399678
0.000417791
0.000436156
0.000454753
-7.43891e-05
-7.48932e-05
-7.47105e-05
-7.44328e-05
-7.38438e-05
-7.29915e-05
-7.18728e-05
-7.04847e-05
-6.88255e-05
-6.68934e-05
-6.46863e-05
-6.22016e-05
-5.94366e-05
-5.63885e-05
-5.30542e-05
-4.94304e-05
-4.55137e-05
-4.13004e-05
-3.67868e-05
-3.19688e-05
-2.68422e-05
-2.14028e-05
-1.56465e-05
-9.56897e-06
-3.1658e-06
3.56738e-06
1.06351e-05
1.80419e-05
2.57925e-05
3.38916e-05
4.2344e-05
5.11545e-05
6.03277e-05
6.98681e-05
7.97799e-05
9.00671e-05
0.000100733
0.000111782
0.000123217
0.00013504
0.000147253
0.00015986
0.00017286
0.000186255
0.000200043
0.000214225
0.000228799
0.000243762
0.000259109
0.000274838
0.000290941
0.000307412
0.000324241
0.00034142
0.000358938
0.00037678
0.000394934
0.000413384
0.000432112
0.000451099
-8.11448e-05
-8.16605e-05
-8.14865e-05
-8.12228e-05
-8.06498e-05
-7.98162e-05
-7.87191e-05
-7.73551e-05
-7.57227e-05
-7.38198e-05
-7.1644e-05
-6.91929e-05
-6.64637e-05
-6.34532e-05
-6.01583e-05
-5.65756e-05
-5.27014e-05
-4.85318e-05
-4.40627e-05
-3.92898e-05
-3.42087e-05
-2.8815e-05
-2.3104e-05
-1.70711e-05
-1.07118e-05
-4.02105e-06
3.00586e-06
1.0374e-05
1.80885e-05
2.61546e-05
3.45775e-05
4.33624e-05
5.25146e-05
6.2039e-05
7.19404e-05
8.22235e-05
9.28925e-05
0.000103952
0.000115405
0.000127256
0.000139508
0.000152163
0.000165223
0.000178691
0.000192565
0.000206847
0.000221536
0.000236629
0.000252125
0.00026802
0.000284308
0.000300985
0.000318042
0.000335472
0.000353263
0.000371405
0.000389884
0.000408686
0.000427794
0.000447192
-8.8183e-05
-8.87108e-05
-8.85461e-05
-8.82973e-05
-8.77413e-05
-8.69279e-05
-8.58539e-05
-8.45159e-05
-8.29122e-05
-8.10405e-05
-7.88986e-05
-7.64837e-05
-7.37929e-05
-7.0823e-05
-6.75707e-05
-6.40324e-05
-6.02041e-05
-5.60818e-05
-5.1661e-05
-4.69373e-05
-4.19059e-05
-3.6562e-05
-3.09008e-05
-2.49173e-05
-1.86065e-05
-1.1963e-05
-4.98171e-06
2.34296e-06
1.00166e-05
1.80449e-05
2.64336e-05
3.51885e-05
4.43151e-05
5.38191e-05
6.37058e-05
7.39807e-05
8.46487e-05
9.57149e-05
0.000107184
0.00011906
0.000131348
0.00014405
0.000157169
0.000170709
0.000184669
0.000199052
0.000213857
0.000229084
0.000244732
0.000260798
0.000277278
0.000294168
0.000311461
0.000329151
0.000347228
0.000365681
0.000384498
0.000403668
0.000423174
0.000442999
-9.55013e-05
-9.60418e-05
-9.5887e-05
-9.5654e-05
-9.51161e-05
-9.43243e-05
-9.3275e-05
-9.19649e-05
-9.03919e-05
-8.85539e-05
-8.64483e-05
-8.40723e-05
-8.14229e-05
-7.84967e-05
-7.52904e-05
-7.17999e-05
-6.80213e-05
-6.39501e-05
-5.95818e-05
-5.49115e-05
-4.99342e-05
-4.46449e-05
-3.90383e-05
-3.31091e-05
-2.68518e-05
-2.02608e-05
-1.33303e-05
-6.05439e-06
1.57313e-06
9.5584e-06
1.79077e-05
2.66271e-05
3.5723e-05
4.52015e-05
5.50686e-05
6.53305e-05
7.5993e-05
8.70621e-05
9.85431e-05
0.000110441
0.000122761
0.000135508
0.000148684
0.000162293
0.000176339
0.000190822
0.000205745
0.000221108
0.00023691
0.000253151
0.000269828
0.000286937
0.000304473
0.000322431
0.000340803
0.000359579
0.000378749
0.0003983
0.000418219
0.00043849
-0.000103097
-0.000103651
-0.000103506
-0.00010329
-0.000102772
-0.000102003
-0.00010098
-9.96996e-05
-9.81596e-05
-9.63576e-05
-9.4291e-05
-9.19569e-05
-8.9352e-05
-8.6473e-05
-8.33161e-05
-7.98773e-05
-7.61523e-05
-7.21364e-05
-6.78247e-05
-6.32124e-05
-5.8294e-05
-5.30642e-05
-4.75174e-05
-4.16478e-05
-3.54496e-05
-2.89167e-05
-2.20427e-05
-1.48212e-05
-7.24562e-06
6.90744e-07
8.99462e-06
1.76728e-05
2.6732e-05
3.61792e-05
4.60211e-05
5.62646e-05
6.69165e-05
7.79833e-05
8.94715e-05
0.000101387
0.000113736
0.000126522
0.000139752
0.000153429
0.000167557
0.00018214
0.00019718
0.000212679
0.000228638
0.000245056
0.000261932
0.000279265
0.000297051
0.000315284
0.000333959
0.000353068
0.000372602
0.000392548
0.000412895
0.000433628
-0.000110967
-0.000111535
-0.000111402
-0.000111203
-0.000110705
-0.000109961
-0.000108966
-0.000107718
-0.000106213
-0.000104449
-0.000102425
-0.000100135
-9.75785e-05
-9.47502e-05
-9.16465e-05
-8.82633e-05
-8.4596e-05
-8.06397e-05
-7.63895e-05
-7.184e-05
-6.69856e-05
-6.18207e-05
-5.63391e-05
-5.05349e-05
-4.44017e-05
-3.79327e-05
-3.11214e-05
-2.39606e-05
-1.64434e-05
-8.56244e-06
-3.10544e-07
8.31968e-06
1.73357e-05
2.6745e-05
3.65554e-05
4.67744e-05
5.74096e-05
6.84684e-05
7.9958e-05
9.18853e-05
0.000104257
0.000117079
0.000130358
0.000144099
0.000158308
0.000172988
0.000188144
0.000203778
0.000219892
0.000236489
0.000253567
0.000271127
0.000289166
0.000307681
0.000326666
0.000346117
0.000366023
0.000386377
0.000407166
0.000428377
-0.000119109
-0.000119691
-0.00011957
-0.00011939
-0.000118914
-0.000118196
-0.000117231
-0.000116016
-0.000114549
-0.000112827
-0.000110847
-0.000108606
-0.0001061
-0.000103326
-0.00010028
-9.69564e-05
-9.33513e-05
-8.94595e-05
-8.52756e-05
-8.07942e-05
-7.60093e-05
-7.09148e-05
-6.55044e-05
-5.97716e-05
-5.37095e-05
-4.73111e-05
-4.0569e-05
-3.34758e-05
-2.60239e-05
-1.82055e-05
-1.00129e-05
-1.43785e-06
7.52768e-06
1.68921e-05
2.66637e-05
3.68511e-05
4.74627e-05
5.85065e-05
6.99909e-05
8.19235e-05
9.43122e-05
0.000107164
0.000120487
0.000134288
0.000148572
0.000163345
0.000178613
0.00019438
0.00021065
0.000227424
0.000244705
0.000262494
0.00028079
0.00029959
0.000318892
0.000338691
0.00035898
0.000379752
0.000400996
0.0004227
-0.000127519
-0.000128117
-0.000128007
-0.000127848
-0.000127395
-0.000126704
-0.000125771
-0.000124592
-0.000123165
-0.000121487
-0.000119555
-0.000117365
-0.000114915
-0.000112199
-0.000109214
-0.000105955
-0.000102417
-9.85946e-05
-9.44824e-05
-9.00746e-05
-8.53649e-05
-8.03469e-05
-7.5014e-05
-6.9359e-05
-6.33748e-05
-5.70538e-05
-5.03881e-05
-4.33699e-05
-3.59909e-05
-2.82429e-05
-2.01173e-05
-1.16054e-05
-2.69834e-06
6.6131e-06
1.63381e-05
2.64859e-05
3.70658e-05
4.80868e-05
5.95581e-05
7.14886e-05
8.38871e-05
9.67623e-05
0.000110123
0.000123976
0.00013833
0.000153192
0.000168568
0.000184464
0.000200886
0.000217836
0.000235319
0.000253337
0.00027189
0.000290979
0.000310602
0.000330755
0.000351435
0.000372634
0.000394344
0.000416555
-0.000136194
-0.000136807
-0.000136711
-0.000136572
-0.000136144
-0.000135482
-0.000134583
-0.000133442
-0.000132058
-0.000130427
-0.000128546
-0.000126412
-0.00012402
-0.000121367
-0.000118447
-0.000115257
-0.000111791
-0.000108044
-0.000104009
-9.96805e-05
-9.50522e-05
-9.01171e-05
-8.48683e-05
-7.92981e-05
-7.33989e-05
-6.71627e-05
-6.05812e-05
-5.36459e-05
-4.6348e-05
-3.86787e-05
-3.06287e-05
-2.21886e-05
-1.33487e-05
-4.09897e-06
5.57046e-06
1.56697e-05
2.62089e-05
3.71982e-05
4.86476e-05
6.05673e-05
7.29673e-05
8.58574e-05
9.92473e-05
0.000113146
0.000127563
0.000142507
0.000157985
0.000174005
0.000190574
0.000207697
0.00022538
0.000243625
0.000262436
0.000281815
0.000301761
0.000322273
0.000343349
0.000364983
0.000387169
0.000409898
-0.00014513
-0.00014576
-0.000145677
-0.00014556
-0.000145158
-0.000144527
-0.000143664
-0.000142564
-0.000141225
-0.000139644
-0.000137817
-0.000135741
-0.000133412
-0.000130826
-0.000127977
-0.000124861
-0.000121472
-0.000117805
-0.000113854
-0.000109611
-0.000105071
-0.000100225
-9.50675e-05
-8.95895e-05
-8.37831e-05
-7.76397e-05
-7.11506e-05
-6.43067e-05
-5.70987e-05
-4.95171e-05
-4.15519e-05
-3.31929e-05
-2.44296e-05
-1.52514e-05
-5.64734e-06
4.39342e-06
1.4882e-05
2.58295e-05
3.72472e-05
4.91463e-05
6.15381e-05
7.44336e-05
8.78438e-05
0.000101779
0.000116251
0.000131268
0.000146841
0.000162979
0.000179689
0.000196979
0.000214856
0.000233326
0.000252393
0.000272061
0.000292331
0.000313205
0.00033468
0.000356755
0.000379427
0.000402685
-0.000154323
-0.00015497
-0.000154902
-0.000154808
-0.000154433
-0.000153835
-0.000153009
-0.000151953
-0.000150662
-0.000149134
-0.000147365
-0.000145352
-0.00014309
-0.000140574
-0.000137801
-0.000134764
-0.000131458
-0.000127878
-0.000124015
-0.000119865
-0.000115419
-0.000110671
-0.000105612
-0.000100234
-9.45284e-05
-8.84863e-05
-8.20984e-05
-7.53551e-05
-6.82464e-05
-6.0762e-05
-5.28914e-05
-4.46236e-05
-3.59474e-05
-2.68512e-05
-1.73234e-05
-7.35208e-06
3.07483e-06
1.39696e-05
2.53445e-05
3.7212e-05
4.95845e-05
6.24745e-05
7.58943e-05
8.98562e-05
0.000104372
0.000119454
0.000135112
0.000151358
0.000168202
0.000185652
0.000203718
0.000222407
0.000241727
0.000261681
0.000282274
0.000303509
0.000325387
0.000347907
0.00037107
0.000394868
-0.000163768
-0.000164433
-0.00016438
-0.000164311
-0.000163964
-0.000163401
-0.000162616
-0.000161605
-0.000160365
-0.000158893
-0.000157186
-0.000155239
-0.000153048
-0.000150609
-0.000147916
-0.000144964
-0.000141747
-0.000138259
-0.000134492
-0.000130441
-0.000126097
-0.000121454
-0.000116501
-0.000111231
-0.000105635
-9.97038e-05
-9.34264e-05
-8.67934e-05
-7.97939e-05
-7.24172e-05
-6.46519e-05
-5.64862e-05
-4.79082e-05
-3.89056e-05
-2.94657e-05
-1.95757e-05
-9.22255e-06
1.60719e-06
1.2927e-05
2.47505e-05
3.70915e-05
4.99637e-05
6.3381e-05
7.73572e-05
9.19059e-05
0.00010704
0.000122774
0.000139118
0.000156085
0.000173686
0.000191933
0.000210835
0.0002304
0.000250636
0.00027155
0.000293144
0.000315423
0.000338389
0.00036205
0.000386395
-0.000173461
-0.000174144
-0.000174107
-0.000174064
-0.000173748
-0.000173222
-0.000172479
-0.000171516
-0.00017033
-0.000168918
-0.000167276
-0.000165399
-0.000163284
-0.000160926
-0.000158319
-0.000155457
-0.000152335
-0.000148946
-0.000145282
-0.000141337
-0.000137103
-0.000132572
-0.000127734
-0.000122582
-0.000117105
-0.000111293
-0.000105136
-9.86237e-05
-9.17443e-05
-8.44862e-05
-7.68375e-05
-6.87858e-05
-6.03181e-05
-5.14214e-05
-4.20822e-05
-3.22865e-05
-2.20202e-05
-1.12688e-05
-1.77525e-08
1.1748e-05
2.40436e-05
3.68844e-05
5.02856e-05
6.42627e-05
7.88308e-05
9.4005e-05
0.0001098
0.00012623
0.000143309
0.00016105
0.000179467
0.000198572
0.000218376
0.000238888
0.000260116
0.000282067
0.000304743
0.000328146
0.000352316
0.000377215
-0.000183396
-0.000184099
-0.000184079
-0.000184063
-0.00018378
-0.000183291
-0.000182594
-0.000181682
-0.000180553
-0.000179204
-0.000177631
-0.000175829
-0.000173794
-0.000171522
-0.000169006
-0.000166241
-0.00016322
-0.000159936
-0.000156382
-0.000152552
-0.000148435
-0.000144025
-0.000139311
-0.000134285
-0.000128936
-0.000123255
-0.000117229
-0.000110848
-0.0001041
-9.69723e-05
-8.94524e-05
-8.15272e-05
-7.31828e-05
-6.44054e-05
-5.51804e-05
-4.5493e-05
-3.5328e-05
-2.46697e-05
-1.35022e-05
-1.80923e-06
1.04259e-05
2.32199e-05
3.65898e-05
5.05525e-05
6.51248e-05
8.03234e-05
9.6165e-05
0.000112666
0.000129843
0.000147712
0.000166287
0.000185584
0.000205615
0.000226394
0.00024793
0.000270233
0.000293302
0.000317112
0.000341819
0.000367273
-0.00019357
-0.000194292
-0.00019429
-0.000194303
-0.000194053
-0.000193606
-0.000192955
-0.000192097
-0.000191029
-0.000189746
-0.000188246
-0.000186523
-0.000184574
-0.000182393
-0.000179974
-0.000177311
-0.000174398
-0.000171227
-0.000167791
-0.000164081
-0.000160091
-0.00015581
-0.00015123
-0.00014634
-0.00014113
-0.000135589
-0.000129705
-0.000123468
-0.000116863
-0.000109878
-0.0001025
-9.47148e-05
-8.65077e-05
-7.78638e-05
-6.87679e-05
-5.9204e-05
-4.91558e-05
-3.86065e-05
-2.75387e-05
-1.59349e-05
-3.77687e-06
8.95366e-06
2.22752e-05
3.62062e-05
5.07654e-05
6.59713e-05
8.18429e-05
9.83987e-05
0.000115657
0.000133637
0.000152356
0.00017183
0.000192076
0.00021311
0.000234945
0.000257598
0.000281086
0.000305454
0.000330537
0.000356515
-0.000203975
-0.000204718
-0.000204735
-0.000204778
-0.000204563
-0.000204158
-0.000203558
-0.000202757
-0.000201752
-0.00020054
-0.000199117
-0.000197478
-0.000195619
-0.000193535
-0.000191219
-0.000188664
-0.000185865
-0.000182814
-0.000179503
-0.000175924
-0.000172068
-0.000167927
-0.000163489
-0.000158745
-0.000153685
-0.000148295
-0.000142566
-0.000136483
-0.000130035
-0.000123206
-0.000115984
-0.000108353
-0.000100298
-9.18028e-05
-8.28517e-05
-7.34276e-05
-6.3513e-05
-5.30897e-05
-4.21392e-05
-3.06424e-05
-1.85797e-05
-5.93123e-06
7.32298e-06
2.12033e-05
3.57301e-05
5.09243e-05
6.68068e-05
8.33986e-05
0.000100721
0.000118794
0.000137638
0.000157272
0.000177717
0.00019899
0.000221109
0.000244091
0.000267952
0.000292705
0.000318325
0.000344858
-0.000214607
-0.000215371
-0.000215408
-0.000215481
-0.000215304
-0.000214944
-0.000214396
-0.000213655
-0.000212717
-0.000211579
-0.000210238
-0.000208688
-0.000206925
-0.000204942
-0.000202735
-0.000200296
-0.000197618
-0.000194695
-0.000191517
-0.000188076
-0.000184364
-0.000180371
-0.000176086
-0.000171499
-0.000166599
-0.000161374
-0.00015581
-0.000149896
-0.000143617
-0.000136959
-0.000129907
-0.000122445
-0.000114558
-0.000106228
-9.74387e-05
-8.81718e-05
-7.84086e-05
-6.81298e-05
-5.73154e-05
-4.5945e-05
-3.39974e-05
-2.14514e-05
-8.28527e-06
5.52322e-06
1.99966e-05
3.51578e-05
5.103e-05
6.76366e-05
8.50009e-05
0.000103146
0.000122095
0.00014187
0.000162494
0.000183988