/*--------------------------------*- C++ -*----------------------------------*\
  =========                 |
  \\      /  F ield         | OpenFOAM: The Open Source CFD Toolbox
   \\    /   O peration     | Website:  https://openfoam.org
    \\  /    A nd           | Version:  8
     \\/     M anipulation  |
\*---------------------------------------------------------------------------*/
FoamFile
{
    version     2.0;
    format      ascii;
    class       volScalarField;
    location    "20";
    object      p;
}
// * * * * * * * * * * * * * * * * * * * * * * * * * * * * * * * * * * * * * //

dimensions      [0 2 -2 0 0 0 0];

internalField   nonuniform List<scalar> 
11600
(
1.80925e-07
-2.83625e-08
3.35306e-07
9.58207e-07
1.97302e-06
3.34883e-06
5.08713e-06
7.18955e-06
9.65674e-06
1.24893e-05
1.56882e-05
1.92548e-05
2.31909e-05
2.74978e-05
3.21771e-05
3.72303e-05
4.26591e-05
4.84652e-05
5.46504e-05
6.12163e-05
6.81648e-05
7.54975e-05
8.32163e-05
9.13226e-05
9.98183e-05
0.000108705
0.000117984
0.000127656
0.000137724
0.000148187
0.000159048
0.000170307
0.000181965
0.000194022
0.000206479
0.000219336
0.000232593
0.00024625
0.000260307
0.000274764
0.000289619
0.000304873
0.000320525
0.000336575
0.000353022
0.000369867
0.00038711
0.000404754
0.0004228
0.000441254
0.000460123
0.000479418
0.000499154
0.00051935
0.000540034
0.000561271
0.00058317
0.000604671
0.000631987
0.000645445
4.92234e-07
2.51527e-07
6.53267e-07
1.28846e-06
2.31025e-06
3.68861e-06
5.42612e-06
7.52591e-06
9.98966e-06
1.28186e-05
1.60137e-05
1.95763e-05
2.35076e-05
2.78094e-05
3.24832e-05
3.75307e-05
4.29533e-05
4.8753e-05
5.49313e-05
6.149e-05
6.84309e-05
7.57558e-05
8.34664e-05
9.15643e-05
0.000100051
0.000108929
0.000118198
0.000127861
0.000137919
0.000148372
0.000159223
0.000170472
0.000182119
0.000194165
0.000206612
0.000219458
0.000232704
0.000246351
0.000260397
0.000274843
0.000289689
0.000304933
0.000320576
0.000336617
0.000353056
0.000369894
0.000387132
0.000404772
0.000422818
0.000441275
0.000460154
0.000479469
0.000499243
0.000519507
0.000540316
0.000561779
0.000584009
0.000606908
0.000633308
0.000655751
1.78097e-07
-1.21353e-07
2.73783e-07
8.97596e-07
1.9137e-06
3.28844e-06
5.02325e-06
7.12028e-06
9.5808e-06
1.24061e-05
1.55975e-05
1.91561e-05
2.30835e-05
2.73809e-05
3.20501e-05
3.70927e-05
4.25103e-05
4.83048e-05
5.44777e-05
6.10309e-05
6.79662e-05
7.52854e-05
8.29901e-05
9.10821e-05
9.9563e-05
0.000108434
0.000117698
0.000127355
0.000137407
0.000147855
0.0001587
0.000169943
0.000181585
0.000193627
0.000206068
0.00021891
0.000232152
0.000245794
0.000259837
0.000274279
0.000289121
0.000304362
0.000320002
0.000336039
0.000352474
0.000369308
0.00038654
0.000404172
0.000422208
0.000440652
0.000459512
0.000478798
0.000498527
0.000518722
0.000539418
0.000560674
0.000582538
0.000605043
0.000629356
0.000651839
-4.26885e-07
-7.49157e-07
-3.52303e-07
2.67029e-07
1.27998e-06
2.65105e-06
4.38205e-06
6.47506e-06
8.93107e-06
1.17513e-05
1.4937e-05
1.84897e-05
2.24107e-05
2.67015e-05
3.13636e-05
3.63988e-05
4.18088e-05
4.75952e-05
5.37599e-05
6.03047e-05
6.72314e-05
7.45417e-05
8.22375e-05
9.03204e-05
9.87923e-05
0.000107655
0.000116909
0.000126557
0.0001366
0.000147039
0.000157876
0.000169111
0.000180745
0.000192779
0.000205214
0.000218049
0.000231284
0.000244921
0.000258958
0.000273395
0.000288231
0.000303467
0.000319102
0.000335134
0.000351563
0.00036839
0.000385614
0.000403237
0.00042126
0.000439688
0.000458525
0.000477782
0.000497471
0.000517612
0.000538235
0.000559381
0.000581087
0.000603424
0.000626679
0.000649636
-1.44889e-06
-1.78509e-06
-1.39059e-06
-7.76794e-07
2.31815e-07
1.598e-06
3.32386e-06
5.4116e-06
7.86207e-06
1.06763e-05
1.38556e-05
1.74014e-05
2.1315e-05
2.55981e-05
3.02522e-05
3.5279e-05
4.06803e-05
4.64578e-05
5.26133e-05
5.91487e-05
6.60658e-05
7.33664e-05
8.10525e-05
8.91257e-05
9.75878e-05
0.000106441
0.000115685
0.000125324
0.000135358
0.000145789
0.000156617
0.000167844
0.000179471
0.000191499
0.000203927
0.000216756
0.000229987
0.000243619
0.000257651
0.000272085
0.000286918
0.000302151
0.000317781
0.00033381
0.000350234
0.000367055
0.00038427
0.000401881
0.000419887
0.000438289
0.000457091
0.000476297
0.000495912
0.000515945
0.000536407
0.00055731
0.000578656
0.000600456
0.000622719
0.000644975
-2.85383e-06
-3.19774e-06
-2.80657e-06
-2.19808e-06
-1.19398e-06
1.67059e-07
1.88716e-06
3.96865e-06
6.41245e-06
9.21956e-06
1.23912e-05
1.59288e-05
1.98338e-05
2.41078e-05
2.87524e-05
3.37694e-05
3.91605e-05
4.49275e-05
5.10723e-05
5.75967e-05
6.45028e-05
7.17922e-05
7.94671e-05
8.75291e-05
9.59802e-05
0.000104822
0.000114056
0.000123685
0.000133709
0.00014413
0.00015495
0.000166168
0.000177788
0.000189808
0.00020223
0.000215054
0.00022828
0.000241908
0.000255938
0.000270368
0.000285199
0.00030043
0.000316058
0.000332084
0.000348505
0.00036532
0.000382527
0.000400125
0.000418113
0.000436489
0.000455253
0.000474404
0.000493942
0.000513866
0.000534174
0.000554857
0.000575899
0.000597268
0.00061889
0.000640535
-4.64034e-06
-4.98827e-06
-4.6004e-06
-3.99718e-06
-2.99815e-06
-1.64276e-06
7.09819e-08
2.14543e-06
4.58155e-06
7.38039e-06
1.05432e-05
1.40714e-05
1.79665e-05
2.223e-05
2.68637e-05
3.18693e-05
3.72487e-05
4.30037e-05
4.91362e-05
5.56482e-05
6.25416e-05
6.98185e-05
7.74806e-05
8.55301e-05
9.39687e-05
0.000102798
0.000112021
0.000121638
0.000131651
0.000142062
0.000152872
0.000164082
0.000175694
0.000187707
0.000200123
0.000212942
0.000226164
0.000239789
0.000253816
0.000268245
0.000283075
0.000298305
0.000313933
0.000329958
0.000346377
0.000363188
0.000380389
0.000397977
0.000415947
0.000434298
0.000453025
0.000472121
0.000491582
0.000511398
0.000531555
0.000552033
0.000572798
0.000593798
0.000614945
0.000636077
-6.80692e-06
-7.15785e-06
-6.77297e-06
-6.17493e-06
-5.1815e-06
-3.83242e-06
-2.12574e-06
-5.915e-08
2.36834e-06
5.15785e-06
8.31065e-06
1.18282e-05
1.57119e-05
1.99636e-05
2.4585e-05
2.95777e-05
3.49439e-05
4.06852e-05
4.68039e-05
5.33018e-05
6.01811e-05
6.74437e-05
7.50917e-05
8.31271e-05
9.15519e-05
0.000100368
0.000109578
0.000119182
0.000129184
0.000139584
0.000150383
0.000161584
0.000173187
0.000185194
0.000197604
0.000210418
0.000223636
0.000237259
0.000251285
0.000265714
0.000280545
0.000295776
0.000311406
0.000327432
0.000343852
0.000360663
0.000377861
0.000395442
0.0004134
0.00043173
0.000450424
0.000469474
0.000488868
0.00050859
0.00052862
0.000548929
0.000569474
0.000590196
0.000611009
0.000631786
-9.35138e-06
-9.70561e-06
-9.32368e-06
-8.73076e-06
-7.74332e-06
-6.4012e-06
-4.70235e-06
-2.64449e-06
-2.2659e-07
2.55247e-06
5.69404e-06
9.19959e-06
1.30707e-05
1.73091e-05
2.19165e-05
2.68949e-05
3.22461e-05
3.79723e-05
4.40754e-05
5.05576e-05
5.7421e-05
6.46677e-05
7.22999e-05
8.03197e-05
8.87293e-05
9.75306e-05
0.000106726
0.000116317
0.000126305
0.000136693
0.000147482
0.000158673
0.000170267
0.000182266
0.000194671
0.00020748
0.000220696
0.000234317
0.000248343
0.000262774
0.000277607
0.000292843
0.000308477
0.000324508
0.000340933
0.000357747
0.000374947
0.000392526
0.000410478
0.000428796
0.000447468
0.000466483
0.000485826
0.000505477
0.000525411
0.000545594
0.00056598
0.000586511
0.000607107
0.000627665
-1.2272e-05
-1.26301e-05
-1.22515e-05
-1.16639e-05
-1.06828e-05
-9.34824e-06
-7.65803e-06
-5.60979e-06
-3.20251e-06
-4.35023e-07
2.69408e-06
6.1863e-06
1.00433e-05
1.42668e-05
1.88588e-05
2.38211e-05
2.91558e-05
3.4865e-05
4.09508e-05
4.74155e-05
5.42612e-05
6.14903e-05
6.9105e-05
7.71076e-05
8.55003e-05
9.42852e-05
0.000103465
0.000113041
0.000123015
0.00013339
0.000144167
0.000155347
0.000166933
0.000178924
0.000191322
0.000204128
0.000217341
0.000230962
0.000244989
0.000259423
0.000274262
0.000289503
0.000305145
0.000321185
0.000337619
0.000354443
0.00037165
0.000389236
0.000407191
0.000425505
0.000444168
0.000463165
0.000482478
0.000502085
0.000521958
0.00054206
0.000562349
0.000582765
0.00060324
0.000623688
-1.55678e-05
-1.59301e-05
-1.55552e-05
-1.49733e-05
-1.39991e-05
-1.26727e-05
-1.09919e-05
-8.95425e-06
-6.55866e-06
-3.80392e-06
-6.88588e-07
2.78893e-06
6.63033e-06
1.08375e-05
1.54123e-05
2.03567e-05
2.56731e-05
3.13634e-05
3.74301e-05
4.38754e-05
5.07017e-05
5.79113e-05
6.55066e-05
7.34901e-05
8.18641e-05
9.0631e-05
9.97931e-05
0.000109353
0.000119312
0.000129672
0.000140436
0.000151605
0.000163181
0.000175164
0.000187556
0.000200358
0.00021357
0.000227191
0.000241221
0.00025566
0.000270506
0.000285756
0.00030141
0.000317463
0.000333911
0.00035075
0.000367973
0.000385573
0.000403541
0.000421866
0.000440535
0.000459533
0.000478839
0.00049843
0.000518278
0.000538346
0.000558592
0.000578963
0.000599397
0.000619824
-1.92376e-05
-1.96043e-05
-1.92335e-05
-1.86579e-05
-1.76911e-05
-1.63736e-05
-1.47031e-05
-1.2677e-05
-1.02942e-05
-7.55343e-06
-4.45321e-06
-9.91872e-07
2.83237e-06
7.02142e-06
1.15773e-05
1.65022e-05
2.17983e-05
2.74679e-05
3.35134e-05
3.99373e-05
4.6742e-05
5.39301e-05
6.15042e-05
6.94666e-05
7.78201e-05
8.65671e-05
9.57101e-05
0.000105251
0.000115194
0.000125538
0.000136288
0.000147445
0.00015901
0.000170985
0.000183371
0.000196169
0.000209379
0.000223001
0.000237036
0.000251482
0.000266337
0.000281601
0.00029727
0.000313341
0.000329809
0.00034667
0.000363917
0.000381541
0.000399533
0.000417882
0.000436574
0.000455592
0.000474916
0.000494521
0.00051438
0.000534457
0.000554712
0.000575098
0.000595559
0.000616036
-2.32803e-05
-2.36517e-05
-2.32852e-05
-2.27165e-05
-2.17577e-05
-2.04499e-05
-1.87905e-05
-1.6777e-05
-1.44081e-05
-1.16827e-05
-8.59897e-06
-5.15534e-06
-1.34992e-06
2.8193e-06
7.35446e-06
1.22578e-05
1.75316e-05
2.31784e-05
2.92007e-05
3.56011e-05
4.23821e-05
4.95466e-05
5.70971e-05
6.50365e-05
7.33673e-05
8.20924e-05
9.12144e-05
0.000100736
0.000110659
0.000120987
0.000131722
0.000142865
0.000154418
0.000166384
0.000178764
0.000191558
0.000204767
0.000218391
0.000232431
0.000246886
0.000261754
0.000277033
0.000292722
0.000308815
0.00032531
0.0003422
0.000359479
0.000377138
0.000395167
0.000413555
0.000432287
0.000451346
0.000470712
0.000490361
0.000510265
0.000530392
0.000550704
0.000571157
0.000591703
0.00061229
-2.76944e-05
-2.80708e-05
-2.7709e-05
-2.71477e-05
-2.61977e-05
-2.49002e-05
-2.32529e-05
-2.12531e-05
-1.88994e-05
-1.61906e-05
-1.3125e-05
-9.70067e-06
-5.9158e-06
-1.76825e-06
2.74422e-06
7.62395e-06
1.28734e-05
1.84952e-05
2.4492e-05
3.08666e-05
3.76216e-05
4.47601e-05
5.22848e-05
6.01987e-05
6.85048e-05
7.72058e-05
8.63046e-05
9.58041e-05
0.000105707
0.000116016
0.000126733
0.000137861
0.000149403
0.000161358
0.000173731
0.000186521
0.000199729
0.000213357
0.000227403
0.000241869
0.000256752
0.00027205
0.000287762
0.000303884
0.000320411
0.000337337
0.000354657
0.000372361
0.00039044
0.000408882
0.000427671
0.000446792
0.000466225
0.000485946
0.000505929
0.000526144
0.000546554
0.000567121
0.000587802
0.000608551
-3.24783e-05
-3.28603e-05
-3.25034e-05
-3.195e-05
-3.10095e-05
-2.97234e-05
-2.80892e-05
-2.61041e-05
-2.3767e-05
-2.10762e-05
-1.80302e-05
-1.46269e-05
-1.08644e-05
-6.74053e-06
-2.25282e-06
2.60116e-06
7.82402e-06
1.34185e-05
1.93874e-05
2.57337e-05
3.24603e-05
3.95702e-05
4.70666e-05
5.49526e-05
6.32313e-05
7.19058e-05
8.09791e-05
9.04544e-05
0.000100335
0.000110623
0.000121321
0.000132433
0.00014396
0.000155905
0.000168269
0.000181055
0.000194263
0.000207894
0.000221948
0.000236426
0.000251326
0.000266647
0.000282386
0.000298541
0.000315106
0.000332077
0.000349447
0.000367207
0.000385348
0.000403858
0.000422723
0.000441926
0.000461449
0.00048127
0.000501362
0.000521698
0.000542245
0.000562968
0.000583827
0.000604783
-3.76303e-05
-3.80183e-05
-3.76669e-05
-3.7122e-05
-3.61917e-05
-3.49178e-05
-3.32977e-05
-3.13287e-05
-2.90094e-05
-2.63383e-05
-2.33135e-05
-1.99331e-05
-1.6195e-05
-1.20968e-05
-7.636e-06
-2.81007e-06
2.38378e-06
7.94845e-06
1.38869e-05
2.02023e-05
2.68977e-05
3.39765e-05
4.14418e-05
4.92971e-05
5.75457e-05
6.6191e-05
7.52362e-05
8.46848e-05
9.45399e-05
0.000104805
0.000115482
0.000126575
0.000138087
0.000150019
0.000162375
0.000175155
0.000188363
0.000201997
0.000216061
0.000230552
0.000245472
0.000260818
0.000276588
0.000292781
0.000309391
0.000326413
0.000343842
0.000361668
0.000379884
0.000398477
0.000417434
0.000436739
0.000456375
0.00047632
0.00049655
0.00051704
0.000537758
0.000558674
0.000579751
0.000600953
-4.31488e-05
-4.35432e-05
-4.31976e-05
-4.2662e-05
-4.17426e-05
-4.04819e-05
-3.88771e-05
-3.69255e-05
-3.46255e-05
-3.19755e-05
-2.89738e-05
-2.56182e-05
-2.19064e-05
-1.78361e-05
-1.34046e-05
-8.60915e-06
-3.44686e-06
2.08534e-06
7.99063e-06
1.42723e-05
2.09337e-05
2.79783e-05
3.54096e-05
4.32313e-05
5.14468e-05
6.00599e-05
6.90742e-05
7.84931e-05
8.83204e-05
9.85595e-05
0.000109214
0.000120286
0.00013178
0.000143699
0.000156044
0.000168819
0.000182024
0.000195663
0.000209735
0.000224242
0.000239182
0.000254556
0.000270362
0.000286596
0.000303256
0.000320337
0.000337833
0.000355736
0.000374038
0.000392728
0.000411793
0.000431219
0.000450988
0.000471081
0.000491477
0.000512149
0.000533071
0.000554213
0.000575542
0.000597026
-4.90318e-05
-4.94331e-05
-4.90938e-05
-4.85681e-05
-4.76605e-05
-4.64139e-05
-4.48256e-05
-4.28927e-05
-4.06135e-05
-3.79865e-05
-3.50097e-05
-3.16809e-05
-2.79977e-05
-2.39576e-05
-1.95578e-05
-1.47954e-05
-9.66741e-06
-4.17049e-06
1.69868e-06
7.9436e-06
1.45679e-05
2.15752e-05
2.89693e-05
3.6754e-05
4.49333e-05
5.3511e-05
6.2491e-05
7.18773e-05
8.16737e-05
9.18841e-05
0.000102512
0.000113562
0.000125036
0.000136938
0.000149271
0.000162039
0.000175242
0.000188884
0.000202965
0.000217488
0.000232451
0.000247855
0.000263698
0.000279979
0.000296695
0.00031384
0.000331411
0.000349401
0.0003678
0.0003866
0.000405789
0.000425352
0.000445274
0.000465538
0.000486122
0.000507003
0.000528157
0.000549556
0.000571171
0.00059297
-5.52773e-05
-5.56859e-05
-5.53533e-05
-5.48382e-05
-5.39433e-05
-5.2712e-05
-5.11415e-05
-4.92286e-05
-4.69719e-05
-4.43697e-05
-4.14197e-05
-3.81199e-05
-3.44675e-05
-3.04601e-05
-2.60947e-05
-2.13682e-05
-1.62773e-05
-1.08187e-05
-4.98876e-06
1.21619e-06
7.79998e-06
1.47666e-05
2.212e-05
2.98643e-05
3.80037e-05
4.65424e-05
5.54847e-05
6.48348e-05
7.4597e-05
8.47754e-05
9.53743e-05
0.000106398
0.000117849
0.000129733
0.000142052
0.000154811
0.00016801
0.000181654
0.000195745
0.000210283
0.000225269
0.000240705
0.000256589
0.000272919
0.000289695
0.000306911
0.000324565
0.000342649
0.000361156
0.000380078
0.000399404
0.000419121
0.000439215
0.000459669
0.000480464
0.000501579
0.000522992
0.000544677
0.000566606
0.000588749
-6.18831e-05
-6.22995e-05
-6.1974e-05
-6.14703e-05
-6.0589e-05
-5.93741e-05
-5.78226e-05
-5.59314e-05
-5.36989e-05
-5.11233e-05
-4.82023e-05
-4.49337e-05
-4.13147e-05
-3.73426e-05
-3.30142e-05
-2.83265e-05
-2.32759e-05
-1.78588e-05
-1.20715e-05
-5.90996e-06
6.29777e-07
7.55195e-06
1.48609e-05
2.25609e-05
3.06566e-05
3.91525e-05
4.80532e-05
5.73633e-05
6.70875e-05
7.72304e-05
8.77965e-05
9.87903e-05
0.000110216
0.000122079
0.000134381
0.000147128
0.000160322
0.000173967
0.000188065
0.000202618
0.000217629
0.000233097
0.000249023
0.000265406
0.000282245
0.000299538
0.00031728
0.000335466
0.000354091
0.000373146
0.000392622
0.000412507
0.000432789
0.000453452
0.000474479
0.000495851
0.000517547
0.000539543
0.000561815
0.000584337
-6.88467e-05
-6.92713e-05
-6.89535e-05
-6.84619e-05
-6.75952e-05
-6.63979e-05
-6.48669e-05
-6.2999e-05
-6.07925e-05
-5.82455e-05
-5.53558e-05
-5.21207e-05
-4.85376e-05
-4.46036e-05
-4.03153e-05
-3.56695e-05
-3.06624e-05
-2.52903e-05
-1.95491e-05
-1.34348e-05
-6.94295e-06
-6.91437e-08
7.19124e-06
1.48429e-05
2.28907e-05
3.13396e-05
4.01944e-05
4.94603e-05
5.91423e-05
6.92455e-05
7.97749e-05
9.07354e-05
0.000102132
0.000113969
0.000126252
0.000138984
0.00015217
0.000165814
0.000179918
0.000194486
0.000209519
0.00022502
0.00024099
0.000257428
0.000274334
0.000291706
0.000309542
0.000327838
0.000346588
0.000365786
0.000385423
0.00040549
0.000425974
0.000446863
0.000468141
0.00048979
0.000511791
0.000534123
0.000556763
0.000579687
-7.61656e-05
-7.65989e-05
-7.62893e-05
-7.58107e-05
-7.49596e-05
-7.37811e-05
-7.2272e-05
-7.04291e-05
-6.82505e-05
-6.57343e-05
-6.28781e-05
-5.96792e-05
-5.61348e-05
-5.22417e-05
-4.79967e-05
-4.3396e-05
-3.84359e-05
-3.31124e-05
-2.74213e-05
-2.13581e-05
-1.49183e-05
-8.09715e-06
-8.89664e-07
6.70917e-06
1.47045e-05
2.31017e-05
3.19061e-05
4.11232e-05
5.07584e-05
6.08173e-05
7.13054e-05
8.22283e-05
9.35912e-05
0.0001054
0.000117659
0.000130373
0.000143548
0.000157187
0.000171295
0.000185875
0.000200931
0.000216464
0.000232477
0.000248971
0.000265946
0.000283401
0.000301335
0.000319746
0.000338628
0.000357977
0.000377786
0.000398046
0.000418747
0.000439876
0.000461422
0.000483366
0.000505694
0.000528384
0.000551415
0.000574766
-8.3837e-05
-8.42795e-05
-8.39786e-05
-8.35138e-05
-8.26794e-05
-8.1521e-05
-8.00355e-05
-7.82193e-05
-7.60707e-05
-7.35875e-05
-7.07673e-05
-6.76072e-05
-6.41044e-05
-6.02554e-05
-5.60568e-05
-5.15049e-05
-4.65955e-05
-4.13246e-05
-3.56876e-05
-2.96798e-05
-2.32964e-05
-1.65324e-05
-9.38252e-06
-1.84134e-06
6.09669e-06
1.44373e-05
2.31862e-05
3.23493e-05
4.19326e-05
5.19422e-05
6.23841e-05
7.32642e-05
8.45887e-05
9.63634e-05
0.000108594
0.000121286
0.000134446
0.000148078
0.000162186
0.000176776
0.000191851
0.000207416
0.000223471
0.000240021
0.000257066
0.000274606
0.000292642
0.000311172
0.000330192
0.000349699
0.000369688
0.000390151
0.00041108
0.000432464
0.000454292
0.00047655
0.000499221
0.000522289
0.000545734
0.000569535
-9.18579e-05
-9.23101e-05
-9.20185e-05
-9.15685e-05
-9.07518e-05
-8.9615e-05
-8.81545e-05
-8.6367e-05
-8.42504e-05
-8.18026e-05
-7.9021e-05
-7.59026e-05
-7.24443e-05
-6.86428e-05
-6.44942e-05
-5.99947e-05
-5.514e-05
-4.99258e-05
-4.43472e-05
-3.83994e-05
-3.20772e-05
-2.53752e-05
-1.82879e-05
-1.08096e-05
-2.93416e-06
5.34438e-06
1.40323e-05
2.3136e-05
3.26618e-05
4.26165e-05
5.30064e-05
6.38384e-05
7.51189e-05
8.68546e-05
9.90519e-05
0.000111717
0.000124856
0.000138476
0.000152581
0.000167177
0.00018227
0.000197862
0.000213959
0.000230564
0.000247678
0.000265305
0.000283444
0.000302095
0.000321258
0.000340929
0.000361104
0.000381779
0.000402946
0.000424596
0.000446721
0.000469306
0.000492339
0.000515804
0.000539682
0.000563955
-0.000100225
-0.000100687
-0.000100406
-9.99714e-05
-9.91737e-05
-9.80599e-05
-9.66262e-05
-9.48693e-05
-9.2787e-05
-9.03771e-05
-8.76367e-05
-8.4563e-05
-8.11526e-05
-7.74019e-05
-7.3307e-05
-6.88639e-05
-6.40681e-05
-5.89149e-05
-5.33994e-05
-4.75164e-05
-4.12603e-05
-3.46257e-05
-2.76064e-05
-2.01964e-05
-1.23893e-05
-4.1786e-06
4.44239e-06
1.34805e-05
2.29428e-05
3.28363e-05
4.31682e-05
5.39457e-05
6.51761e-05
7.68667e-05
8.90245e-05
0.000101657
0.000114771
0.000128373
0.00014247
0.000157067
0.000172172
0.00018779
0.000203925
0.000220582
0.000237765
0.000255477
0.00027372
0.000292495
0.000311803
0.000331641
0.000352009
0.000372902
0.000394315
0.000416242
0.000438674
0.0004616
0.00048501
0.000508888
0.000533218
0.000557983
-0.000108935
-0.000109408
-0.000109137
-0.000108719
-0.000107942
-0.000106853
-0.000105447
-0.000103723
-0.000101677
-9.9308e-05
-9.66118e-05
-9.35859e-05
-9.02267e-05
-8.65305e-05
-8.24933e-05
-7.81107e-05
-7.33782e-05
-6.82908e-05
-6.28432e-05
-5.70301e-05
-5.08456e-05
-4.42837e-05
-3.73382e-05
-3.00025e-05
-2.22699e-05
-1.41333e-05
-5.5857e-06
3.38035e-06
1.27723e-05
2.25979e-05
3.28649e-05
4.35811e-05
5.47545e-05
6.63931e-05
7.85048e-05
9.10976e-05
0.000104179
0.000117758
0.00013184
0.000146434
0.000161547
0.000177185
0.000193354
0.00021006
0.000227309
0.000245104
0.00026345
0.000282349
0.000301802
0.000321811
0.000342374
0.000363491
0.000385157
0.000407368
0.000430117
0.000453396
0.000477195
0.000501501
0.000526301
0.000551577
-0.000117985
-0.000118469
-0.000118209
-0.000117809
-0.000117053
-0.000115989
-0.000114615
-0.000112925
-0.000110919
-0.000108592
-0.000105943
-0.000102968
-9.9664e-05
-9.60262e-05
-9.20508e-05
-8.77332e-05
-8.30686e-05
-7.80518e-05
-7.26774e-05
-6.69396e-05
-6.08324e-05
-5.43492e-05
-4.74836e-05
-4.02286e-05
-3.2577e-05
-2.45213e-05
-1.6054e-05
-7.1672e-06
2.14722e-06
1.18975e-05
2.2092e-05
3.27393e-05
4.38481e-05
5.5427e-05
6.7485e-05
8.00307e-05
9.30729e-05
0.00010662
0.000120682
0.000135265
0.000150379
0.000166031
0.000182229
0.00019898
0.00021629
0.000234165
0.000252611
0.000271632
0.00029123
0.000311409
0.000332171
0.000353513
0.000375437
0.000397938
0.000421012
0.000444653
0.000468853
0.000493601
0.000518885
0.00054469
-0.00012737
-0.000127866
-0.000127617
-0.000127236
-0.000126503
-0.000125467
-0.000124125
-0.000122472
-0.000120507
-0.000118227
-0.000115628
-0.000112708
-0.000109462
-0.000105886
-0.000101977
-9.7729e-05
-9.31373e-05
-8.81964e-05
-8.29007e-05
-7.7244e-05
-7.12199e-05
-6.48218e-05
-5.80426e-05
-5.08751e-05
-4.33115e-05
-3.5344e-05
-2.69646e-05
-1.81646e-05
-8.93567e-06
7.31211e-07
1.08451e-05
2.14152e-05
3.24509e-05
4.39618e-05
5.59574e-05
6.84476e-05
8.1442e-05
9.49502e-05
0.000108982
0.000123547
0.000138655
0.000154314
0.000170534
0.000187322
0.000204688
0.000222639
0.00024118
0.000260319
0.000280061
0.000300409
0.000321368
0.000342938
0.000365121
0.000387916
0.000411321
0.000435332
0.000459941
0.000485142
0.000510923
0.000537272
-0.000137086
-0.000137594
-0.000137358
-0.000136996
-0.000136287
-0.000135281
-0.000133973
-0.00013236
-0.000130439
-0.000128208
-0.000125662
-0.0001228
-0.000119617
-0.000116108
-0.000112269
-0.000108096
-0.000103582
-9.87225e-05
-9.35112e-05
-8.79417e-05
-8.20073e-05
-7.57008e-05
-6.90151e-05
-6.19422e-05
-5.44742e-05
-4.66027e-05
-3.83191e-05
-2.96144e-05
-2.04794e-05
-1.09046e-05
-8.80311e-07
9.60347e-06
2.05569e-05
3.19904e-05
4.39144e-05
5.63395e-05
6.92766e-05
8.27363e-05
9.67295e-05
0.000111267
0.000126359
0.000142017
0.00015825
0.000175069
0.000192484
0.000210502
0.000229133
0.000248386
0.000268266
0.00028878
0.000309933
0.00033173
0.000354173
0.000377265
0.000401003
0.000425388
0.000450415
0.000476077
0.000502367
0.000529274
-0.000147129
-0.00014765
-0.000147427
-0.000147086
-0.000146402
-0.000145427
-0.000144156
-0.000142584
-0.00014071
-0.000138531
-0.000136043
-0.000133242
-0.000130126
-0.000126688
-0.000122925
-0.000118831
-0.0001144
-0.000109628
-0.000104507
-9.90312e-05
-9.31931e-05
-8.69855e-05
-8.04004e-05
-7.343e-05
-6.60655e-05
-5.82983e-05
-5.01192e-05
-4.15186e-05
-3.24867e-05
-2.30135e-05
-1.30884e-05
-2.70085e-06
8.16026e-06
1.95061e-05
3.1348e-05
4.36977e-05
5.6567e-05
6.99676e-05
8.39116e-05
9.8411e-05
0.000113478
0.000129124
0.000145361
0.000162201
0.000179654
0.000197732
0.000216446
0.000235804
0.000255816
0.00027649
0.000297834
0.000319854
0.000342555
0.000365942
0.000390016
0.000414778
0.000440226
0.000466357
0.000493165
0.000520642
-0.000157494
-0.000158028
-0.000157819
-0.0001575
-0.000156844
-0.000155901
-0.000154668
-0.000153141
-0.000151317
-0.000149193
-0.000146765
-0.000144031
-0.000140984
-0.000137622
-0.00013394
-0.00012993
-0.000125589
-0.00012091
-0.000115886
-0.000110511
-0.000104776
-9.86745e-05
-9.21981e-05
-8.53381e-05
-7.80858e-05
-7.04317e-05
-6.23662e-05
-5.38793e-05
-4.49604e-05
-3.55989e-05
-2.57834e-05
-1.55027e-05
-4.74489e-06
6.50213e-06
1.82507e-05
3.05134e-05
4.33032e-05
5.66329e-05
7.0516e-05
8.49655e-05
9.99951e-05
0.000115618
0.000131847
0.000148697
0.000166179
0.000184306
0.000203091
0.000222545
0.000242681
0.000263507
0.000285035
0.000307273
0.000330228
0.000353907
0.000378315
0.000403454
0.000429326
0.000455931
0.000483264
0.00051132
-0.000168177
-0.000168724
-0.00016853
-0.000168234
-0.000167606
-0.000166698
-0.000165506
-0.000164026
-0.000162254
-0.000160189
-0.000157825
-0.00015516
-0.000152189
-0.000148908
-0.000145311
-0.000141392
-0.000137146
-0.000132566
-0.000127646
-0.000122378
-0.000116754
-0.000110766
-0.000104407
-9.76662e-05
-9.05349e-05
-8.30034e-05
-7.50614e-05
-6.66982e-05
-5.79028e-05
-4.86638e-05
-3.89692e-05
-2.88069e-05
-1.81641e-05
-7.02804e-06
4.61476e-06
1.67779e-05
2.94753e-05
4.27213e-05
5.65302e-05
7.09168e-05
8.58958e-05
0.000101482
0.000117691
0.000134537
0.000152034
0.000170198
0.000189043
0.000208582
0.00022883
0.000249799
0.000271501
0.000293948
0.00031715
0.000341116
0.000365853
0.000391368
0.000417664
0.000444743
0.000472606
0.000501249
-0.000179171
-0.000179733
-0.000179554
-0.000179282
-0.000178684
-0.000177813
-0.000176664
-0.000175233
-0.000173517
-0.000171513
-0.000169218
-0.000166627
-0.000163736
-0.00016054
-0.000157034
-0.000153211
-0.000149066
-0.000144593
-0.000139783
-0.00013463
-0.000129125
-0.00012326
-0.000117026
-0.000110413
-0.000103413
-9.60135e-05
-8.82053e-05
-7.99767e-05
-7.1316e-05
-6.22111e-05
-5.26493e-05
-4.26178e-05
-3.21029e-05
-2.10908e-05
-9.5672e-06
2.48259e-06
1.50737e-05
2.82215e-05
4.19419e-05
5.62508e-05
7.11645e-05
8.66995e-05
0.000102872
0.0001197
0.000137198
0.000155384
0.000174274
0.000193885
0.000214232
0.00023533
0.000257195
0.000279841
0.000303279
0.000327523
0.000352583
0.000378467
0.000405183
0.000432737
0.000461132
0.000490369
-0.000190471
-0.000191048
-0.000190885
-0.000190639
-0.000190072
-0.000189239
-0.000188136
-0.000186757
-0.0001851
-0.000183162
-0.000180939
-0.000178426
-0.00017562
-0.000172514
-0.000169104
-0.000165384
-0.000161347
-0.000156986
-0.000152295
-0.000147264
-0.000141886
-0.000136152
-0.000130052
-0.000123578
-0.000116718
-0.000109462
-0.000101798
-9.37158e-05
-8.52017e-05
-7.62432e-05
-6.68271e-05
-5.69395e-05
-4.65661e-05
-3.56922e-05
-2.43023e-05
-1.23808e-05
8.87177e-08
1.31228e-05
2.67387e-05
4.09537e-05
5.57857e-05
7.12527e-05
8.73729e-05
0.000104165
0.000121647
0.000139839
0.000158758
0.000178424
0.000198854
0.000220067
0.00024208
0.00026491
0.000288572
0.000313083
0.000338454
0.0003647
0.00039183
0.000419853
0.000448776
0.000478603
-0.000202072
-0.000202664
-0.000202517
-0.000202298
-0.000201765
-0.000200972
-0.000199917
-0.000198593
-0.000196998
-0.000195129
-0.000192982
-0.000190552
-0.000187835
-0.000184826
-0.000181518
-0.000177906
-0.000173984
-0.000169743
-0.000165177
-0.000160277
-0.000155034
-0.00014944
-0.000143485
-0.000137158
-0.00013045
-0.000123348
-0.000115841
-0.000107916
-9.95611e-05
-9.07622e-05
-8.15053e-05
-7.17758e-05
-6.15586e-05
-5.08379e-05
-3.95974e-05
-2.78202e-05
-1.54888e-05
-2.58541e-06
1.09085e-05
2.50119e-05
3.9744e-05
5.51245e-05
7.11735e-05
8.79114e-05
0.000105359
0.000123537
0.000142466
0.000162168
0.000182663
0.000203972
0.000226115
0.000249113
0.000272983
0.000297745
0.000323416
0.000350011
0.000377544
0.000406028
0.000435472
0.000465885
-0.000213966
-0.000214574
-0.000214445
-0.000214254
-0.000213755
-0.000213006
-0.000212
-0.000210734
-0.000209205
-0.000207409
-0.000205342
-0.000202999
-0.000200377
-0.000197469
-0.00019427
-0.000190773
-0.000186972
-0.000182858
-0.000178426
-0.000173664
-0.000168566
-0.000163122
-0.000157321
-0.000151153
-0.000144606
-0.00013767
-0.000130331
-0.000122578
-0.000114395
-0.000105769
-9.66863e-05
-8.713e-05
-7.70845e-05
-6.65332e-05
-5.54588e-05
-4.38432e-05
-3.16678e-05
-1.89135e-05
-5.56034e-06
8.41195e-06
2.30243e-05
3.8298e-05
5.42551e-05
7.09179e-05
8.83092e-05
0.000106452
0.00012537
0.000145086
0.000165625
0.000187009
0.000209263
0.000232408
0.000256467
0.000281462
0.000307414
0.000334342
0.000362265
0.000391198
0.000421156
0.000452149
-0.000226147
-0.000226772
-0.000226662
-0.0002265
-0.000226037
-0.000225332
-0.00022438
-0.000223175
-0.000221714
-0.000219995
-0.000218012
-0.000215762
-0.000213239
-0.000210439
-0.000207354
-0.000203979
-0.000200306
-0.000196328
-0.000192036
-0.000187423
-0.000182478
-0.000177193
-0.000171557
-0.000165558
-0.000159185
-0.000152427
-0.000145269
-0.0001377
-0.000129704
-0.000121266
-0.000112372
-0.000103005
-9.31475e-05
-8.27829e-05
-7.18924e-05
-6.04569e-05
-4.84567e-05
-3.58712e-05
-2.26793e-05
-8.85908e-06
5.61186e-06
2.07567e-05
3.65992e-05
5.31638e-05
7.04755e-05
8.85596e-05
0.000107442
0.000127149
0.000147707
0.000169142
0.000191481
0.00021475
0.000238975
0.000264182
0.000290394
0.000317636
0.00034593
0.000375297
0.000405755
0.00043732
-0.000238609
-0.00023925
-0.000239159
-0.000239028
-0.000238604
-0.000237946
-0.000237049
-0.000235907
-0.000234519
-0.00023288
-0.000230986
-0.000228833
-0.000226416
-0.000223728
-0.000220764
-0.000217517
-0.00021398
-0.000210145
-0.000206004
-0.000201547
-0.000196766
-0.00019165
-0.000186189
-0.000180371
-0.000174184
-0.000167616
-0.000160653
-0.000153282
-0.000145487
-0.000137253
-0.000128563
-0.000119402
-0.000109751
-9.95909e-05
-8.89033e-05
-7.76677e-05
-6.58631e-05
-5.34677e-05
-4.0459e-05
-2.68137e-05
-1.25075e-05
2.48431e-06
1.81875e-05
3.46286e-05
5.18348e-05
6.98339e-05
8.86542e-05
0.000108325
0.000128875
0.000150333
0.000172731
0.000196097
0.000220461
0.000245852
0.0002723
0.000299832
0.000328475
0.000358255
0.000389196
0.000421319
-0.000251343
-0.000252002
-0.000251931
-0.000251832
-0.000251447
-0.000250838
-0.000249999
-0.000248925
-0.000247612
-0.000246058
-0.000244258
-0.000242207
-0.0002399
-0.000237331
-0.000234494
-0.000231383
-0.000227989
-0.000224305
-0.000220322
-0.000216032
-0.000211424
-0.000206488
-0.000201213
-0.000195588
-0.000189599
-0.000183235
-0.000176481
-0.000169322
-0.000161743
-0.000153728
-0.000145261
-0.000136323
-0.000126896
-0.000116961
-0.000106496
-9.54814e-05
-8.38942e-05
-7.17116e-05
-5.89097e-05
-4.54636e-05
-3.13475e-05
-1.65347e-05
-9.9758e-07
1.52925e-05
3.23649e-05
5.02499e-05
6.89785e-05
8.85824e-05
0.000109094
0.000130545
0.00015297
0.000176402
0.000200874
0.00022642
0.000253073
0.000280866
0.000309831
0.000339998
0.000371396
0.000404052
-0.000264341
-0.000265019
-0.000264969
-0.000264903
-0.00026456
-0.000264002
-0.000263224
-0.00026222
-0.000260987
-0.000259521
-0.000257819
-0.000255875
-0.000253684
-0.00025124
-0.000248537
-0.000245568
-0.000242326
-0.000238801
-0.000234986
-0.000230871
-0.000226447
-0.000221701
-0.000216625
-0.000211204
-0.000205427
-0.00019928
-0.000192748
-0.000185817
-0.000178471
-0.000170693
-0.000162465
-0.000153769
-0.000144586
-0.000134895
-0.000124674
-0.000113903
-0.000102556
-9.06105e-05
-7.80405e-05
-6.48197e-05
-5.09208e-05
-3.63151e-05
-2.0973e-05
-4.86394e-06
1.20439e-05
2.97833e-05
4.83877e-05
6.78917e-05
8.83305e-05
0.00010974
0.000132158
0.00015562
0.000180165