0 	0 	0 	0
1.57135 	-0.000616834 	0.000564101 	0
3.1427 	-0.00137287 	0.000992522 	0
4.71405 	-0.00232837 	0.00109424 	0
6.28539 	-0.00348995 	0.000693144 	0
7.85674 	-0.00483135 	-0.000348107 	0
9.42809 	-0.00651091 	-0.0021135 	0
10.9994 	-0.00959773 	-0.00481807 	0
12.5708 	-0.0135035 	-0.011805 	0
14.1421 	0.5 	0 	0
