/*--------------------------------*- C++ -*----------------------------------*\
  =========                 |
  \\      /  F ield         | OpenFOAM: The Open Source CFD Toolbox
   \\    /   O peration     | Website:  https://openfoam.org
    \\  /    A nd           | Version:  8
     \\/     M anipulation  |
\*---------------------------------------------------------------------------*/
FoamFile
{
    version     2.0;
    format      ascii;
    class       volScalarField;
    location    "32.5";
    object      p;
}
// * * * * * * * * * * * * * * * * * * * * * * * * * * * * * * * * * * * * * //

dimensions      [0 2 -2 0 0 0 0];

internalField   nonuniform List<scalar> 
11600
(
-2.06388e-07
-5.0883e-07
1.58383e-09
9.2092e-07
2.41465e-06
4.44765e-06
7.01746e-06
1.01241e-05
1.37685e-05
1.79525e-05
2.2679e-05
2.79508e-05
3.37716e-05
4.0145e-05
4.70751e-05
5.45662e-05
6.26228e-05
7.12499e-05
8.04525e-05
9.02359e-05
0.000100606
0.000111567
0.000123127
0.00013529
0.000148064
0.000161454
0.000175467
0.00019011
0.000205389
0.00022131
0.000237881
0.000255109
0.000272999
0.000291559
0.000310794
0.000330712
0.000351319
0.00037262
0.000394622
0.00041733
0.000440751
0.00046489
0.000489753
0.000515344
0.000541671
0.000568738
0.000596552
0.000625121
0.000654451
0.00068455
0.000715429
0.000747096
0.000779559
0.000812811
0.000846823
0.00088161
0.000917386
0.000950302
0.000997215
0.00100555
1.26218e-07
-1.84087e-07
4.05691e-07
1.36168e-06
2.87557e-06
4.91723e-06
7.4894e-06
1.05959e-05
1.4239e-05
1.84213e-05
2.31455e-05
2.84148e-05
3.42328e-05
4.06031e-05
4.75298e-05
5.50173e-05
6.307e-05
7.16929e-05
8.08909e-05
9.06695e-05
0.000101034
0.00011199
0.000123544
0.000135702
0.000148469
0.000161852
0.000175858
0.000190494
0.000205765
0.000221679
0.000238242
0.000255461
0.000273343
0.000291894
0.00031112
0.000331029
0.000351626
0.000372918
0.000394911
0.00041761
0.000441022
0.000465153
0.000490008
0.000515593
0.000541914
0.000568978
0.000596792
0.000625364
0.000654704
0.000684823
0.000715736
0.000747462
0.000780029
0.000813472
0.000847859
0.000883355
0.000920084
0.000957544
0.00100282
0.00103839
-3.76088e-07
-7.72608e-07
-1.84221e-07
7.61498e-07
2.27179e-06
4.31043e-06
6.8793e-06
9.98202e-06
1.36208e-05
1.77981e-05
2.25167e-05
2.77799e-05
3.35911e-05
3.9954e-05
4.68729e-05
5.43519e-05
6.23958e-05
7.10092e-05
8.01974e-05
8.99656e-05
0.000100319
0.000111264
0.000122807
0.000134952
0.000147707
0.000161078
0.000175072
0.000189694
0.000204953
0.000220853
0.000237403
0.000254609
0.000272477
0.000291014
0.000310228
0.000330123
0.000350707
0.000371986
0.000393966
0.000416653
0.000440053
0.000464172
0.000489015
0.000514588
0.000540898
0.000567951
0.000595754
0.000624315
0.000653643
0.000683749
0.000714647
0.000746354
0.000778893
0.000812294
0.000846609
0.000881932
0.000918331
0.000955879
0.000997709
0.00103494
-1.32785e-06
-1.76444e-06
-1.16896e-06
-2.26011e-07
1.28407e-06
3.32076e-06
5.88585e-06
8.98333e-06
1.26156e-05
1.67853e-05
2.14954e-05
2.6749e-05
3.25498e-05
3.89016e-05
4.58083e-05
5.32745e-05
6.13046e-05
6.99036e-05
7.90766e-05
8.8829e-05
9.91663e-05
0.000110094
0.000121619
0.000133746
0.000146483
0.000159835
0.000173809
0.000188412
0.00020365
0.000219531
0.00023606
0.000253245
0.000271093
0.00028961
0.000308803
0.000328679
0.000349243
0.000370502
0.000392463
0.000415131
0.000438512
0.000462613
0.000487438
0.000512994
0.000539287
0.000566323
0.000594109
0.000622653
0.000651965
0.000682055
0.000712939
0.000744637
0.000777176
0.000810598
0.000844967
0.000880382
0.000916953
0.000954952
0.000995196
0.00103511
-2.89852e-06
-3.35806e-06
-2.76314e-06
-1.82726e-06
-3.22003e-07
1.70896e-06
4.26727e-06
7.35678e-06
1.09799e-05
1.51392e-05
1.98376e-05
2.50785e-05
3.08654e-05
3.7202e-05
4.40926e-05
5.15416e-05
5.95535e-05
6.81333e-05
7.72862e-05
8.70176e-05
9.7333e-05
0.000108238
0.00011974
0.000131843
0.000144555
0.000157883
0.000171831
0.000186409
0.000201621
0.000217476
0.000233979
0.000251138
0.00026896
0.000287451
0.000306619
0.000326469
0.000347008
0.000368242
0.000390179
0.000412823
0.000436181
0.000460258
0.000485061
0.000510594
0.000536864
0.000563876
0.000591638
0.000620155
0.000649436
0.000679491
0.000710331
0.000741973
0.000774436
0.00080775
0.000841956
0.000877105
0.000913263
0.000950565
0.000989147
0.00102817
-5.05307e-06
-5.524e-06
-4.93147e-06
-4.00255e-06
-2.50356e-06
-4.80098e-07
2.06938e-06
5.14865e-06
8.76002e-06
1.29061e-05
1.75898e-05
2.28145e-05
2.85838e-05
3.49015e-05
4.17718e-05
4.9199e-05
5.71881e-05
6.57438e-05
7.48714e-05
8.45765e-05
9.48646e-05
0.000105742
0.000117214
0.000129288
0.000141969
0.000155266
0.000169183
0.000183728
0.000198909
0.000214731
0.000231202
0.000248329
0.000266119
0.000284578
0.000303714
0.000323533
0.000344041
0.000365245
0.000387152
0.000409767
0.000433097
0.000457146
0.000481921
0.000507427
0.000533668
0.000560652
0.000588382
0.000616864
0.000646106
0.000676113
0.000706895
0.000738463
0.000770829
0.000804011
0.00083803
0.000872909
0.000908671
0.000945338
0.00098284
0.00102085
-7.7865e-06
-8.2627e-06
-7.67348e-06
-6.75137e-06
-5.25983e-06
-3.24549e-06
-7.06816e-07
2.35994e-06
5.95703e-06
1.0087e-05
1.4753e-05
1.99581e-05
2.57062e-05
3.20009e-05
3.88467e-05
4.62478e-05
5.42093e-05
6.27359e-05
7.18332e-05
8.15066e-05
9.17619e-05
0.000102605
0.000114042
0.00012608
0.000138726
0.000151985
0.000165864
0.000180372
0.000195514
0.000211297
0.00022773
0.000244818
0.00026257
0.000280991
0.000300089
0.000319871
0.000340343
0.000361512
0.000383384
0.000405965
0.000429261
0.000453278
0.00047802
0.000503494
0.000529703
0.000556652
0.000584346
0.000612788
0.000641983
0.000671935
0.000702648
0.000734126
0.000766376
0.0007994
0.000833201
0.000867776
0.000903109
0.000939162
0.000975819
0.00101284
-1.10952e-05
-1.15745e-05
-1.09893e-05
-1.00743e-05
-8.59133e-06
-6.58766e-06
-4.06169e-06
-1.00969e-06
2.57058e-06
6.6817e-06
1.13267e-05
1.65089e-05
2.2232e-05
2.84998e-05
3.53168e-05
4.26874e-05
5.06164e-05
5.91091e-05
6.81707e-05
7.7807e-05
8.80238e-05
9.88274e-05
0.000110224
0.00012222
0.000134822
0.000148038
0.000161874
0.000176336
0.000191434
0.000207172
0.00022356
0.000240603
0.00025831
0.000276687
0.000295742
0.000315481
0.000335911
0.000357039
0.000378871
0.000401413
0.000424671
0.000448651
0.000473358
0.000498796
0.000524969
0.000551881
0.000579535
0.000607934
0.000637079
0.000666971
0.000697612
0.000728998
0.000761129
0.000793995
0.000827586
0.000861879
0.000896833
0.00093238
0.000968397
0.00100469
-1.49758e-05
-1.54574e-05
-1.48769e-05
-1.39694e-05
-1.24962e-05
-1.05047e-05
-7.99332e-06
-4.9583e-06
-1.39741e-06
2.69196e-06
7.31284e-06
1.24686e-05
1.8163e-05
2.43999e-05
3.11837e-05
3.85191e-05
4.6411e-05
5.48645e-05
6.38853e-05
7.34789e-05
8.36516e-05
9.44095e-05
0.000105759
0.000117707
0.000130261
0.000143426
0.000157211
0.000171623
0.000186669
0.000202356
0.000218692
0.000235684
0.00025334
0.000271666
0.000290671
0.000310361
0.000330744
0.000351825
0.000373612
0.000396111
0.000419328
0.000443267
0.000467934
0.000493333
0.000519467
0.00054634
0.000573954
0.000602308
0.000631404
0.000661239
0.000691811
0.000723111
0.000755132
0.000787858
0.000821267
0.000855323
0.000889974
0.00092514
0.000960702
0.000996494
-1.9425e-05
-1.99089e-05
-1.93336e-05
-1.84342e-05
-1.6972e-05
-1.49942e-05
-1.24993e-05
-9.4835e-06
-5.94457e-06
-1.87986e-06
2.71369e-06
7.8395e-06
1.35013e-05
1.97032e-05
2.64495e-05
3.37451e-05
4.15948e-05
5.00041e-05
5.89785e-05
6.85239e-05
7.86466e-05
8.93529e-05
0.000100649
0.000112543
0.000125041
0.00013815
0.000151878
0.000166232
0.000181219
0.000196848
0.000213125
0.000230059
0.000247657
0.000265927
0.000284876
0.000304511
0.00032484
0.00034587
0.000367607
0.000390058
0.000413228
0.000437123
0.000461748
0.000487106
0.0005132
0.000540034
0.000567607
0.000595919
0.00062497
0.000654754
0.000685264
0.000716492
0.000748423
0.000781036
0.000814301
0.000848178
0.000882609
0.000917513
0.000952781
0.00098827
-2.44397e-05
-2.4926e-05
-2.43565e-05
-2.34662e-05
-2.2016e-05
-2.00535e-05
-1.7577e-05
-1.45827e-05
-1.10684e-05
-7.03126e-06
-2.46832e-06
2.62394e-06
8.24932e-06
1.44119e-05
2.11163e-05
2.83672e-05
3.61698e-05
4.45295e-05
5.34521e-05
6.29436e-05
7.30102e-05
8.36587e-05
9.48958e-05
0.000106728
0.000119164
0.00013221
0.000145873
0.000160162
0.000175084
0.000190648
0.00020686
0.000223728
0.000241262
0.000259468
0.000278355
0.000297929
0.000318199
0.000339171
0.000360853
0.000383251
0.000406371
0.000430219
0.000454798
0.000480113
0.000506167
0.000532962
0.000560497
0.000588771
0.000617782
0.000647524
0.000677988
0.000709161
0.000741026
0.000773559
0.000806728
0.000840488
0.000874781
0.000909531
0.00094464
0.000979988
-3.00168e-05
-3.05057e-05
-2.99425e-05
-2.90621e-05
-2.76253e-05
-2.56797e-05
-2.32235e-05
-2.02531e-05
-1.6766e-05
-1.27595e-05
-8.23047e-06
-3.17542e-06
2.40955e-06
8.52865e-06
1.51865e-05
2.23879e-05
3.01382e-05
3.84429e-05
4.73079e-05
5.67395e-05
6.67441e-05
7.73284e-05
8.84994e-05
0.000100264
0.000112631
0.000125606
0.000139198
0.000153415
0.000168265
0.000183755
0.000199894
0.000216691
0.000234153
0.000252288
0.000271105
0.000290612
0.000310817
0.000331726
0.000353348
0.000375688
0.000398754
0.000422551
0.000447082
0.000472354
0.000498367
0.000525124
0.000552624
0.000580866
0.000609846
0.000639557
0.00066999
0.000701129
0.000732957
0.000765447
0.000798566
0.00083227
0.000866503
0.000901196
0.000936261
0.000971597
-3.61527e-05
-3.66445e-05
-3.60881e-05
-3.52186e-05
-3.37964e-05
-3.18693e-05
-2.94356e-05
-2.64913e-05
-2.30342e-05
-1.90614e-05
-1.45697e-05
-9.55562e-06
-4.01513e-06
2.05606e-06
8.66262e-06
1.58096e-05
2.35023e-05
3.17465e-05
4.05482e-05
4.99138e-05
5.98499e-05
7.03635e-05
8.14617e-05
9.31521e-05
0.000105442
0.00011834
0.000131853
0.00014599
0.00016076
0.000176169
0.000192228
0.000208945
0.000226328
0.000244385
0.000263126
0.000282559
0.000302691
0.000323532
0.000345087
0.000367366
0.000390373
0.000414115
0.000438597
0.000463823
0.000489795
0.000516517
0.000543986
0.000572202
0.00060116
0.000630854
0.000661272
0.000692401
0.00072422
0.000756704
0.000789821
0.000823527
0.000857772
0.000892491
0.000927609
0.00096304
-4.28435e-05
-4.33384e-05
-4.27897e-05
-4.19319e-05
-4.05257e-05
-3.86189e-05
-3.62096e-05
-3.32939e-05
-2.98695e-05
-2.59335e-05
-2.14827e-05
-1.65134e-05
-1.10216e-05
-5.00276e-06
1.54774e-06
8.6351e-06
1.62648e-05
2.44428e-05
3.31752e-05
4.24685e-05
5.23297e-05
6.27658e-05
7.37842e-05
8.53927e-05
9.7599e-05
0.000110411
0.000123838
0.000137888
0.000152569
0.00016789
0.000183861
0.000200489
0.000217785
0.000235757
0.000254414
0.000273765
0.000293819
0.000314584
0.000336068
0.000358278
0.000381222
0.000404907
0.000429336
0.000454515
0.000480448
0.000507135
0.000534578
0.000562775
0.000591721
0.00062141
0.000651832
0.000682972
0.000714812
0.000747327
0.000780485
0.000814247
0.000848567
0.000883387
0.000918641
0.000954255
-5.00853e-05
-5.05835e-05
-5.00429e-05
-4.9198e-05
-4.78091e-05
-4.59243e-05
-4.35416e-05
-4.0657e-05
-3.72682e-05
-3.33722e-05
-2.89658e-05
-2.40452e-05
-1.86062e-05
-1.26444e-05
-6.15493e-06
8.67592e-07
8.42877e-06
1.65346e-05
2.51915e-05
3.44062e-05
4.41856e-05
5.45372e-05
6.54686e-05
7.69877e-05
8.91026e-05
0.000101822
0.000115154
0.000129108
0.000143692
0.000158917
0.00017479
0.000191323
0.000208523
0.000226401
0.000244967
0.000264229
0.000284196
0.000304879
0.000326284
0.000348421
0.000371298
0.000394919
0.000419293
0.000444424
0.000470316
0.000496972
0.000524392
0.000552576
0.00058152
0.000611217
0.00064166
0.000672834
0.000704721
0.0007373
0.000770541
0.000804408
0.000838859
0.000873844
0.000909305
0.000945178
-5.78734e-05
-5.83753e-05
-5.78435e-05
-5.70124e-05
-5.56423e-05
-5.37812e-05
-5.14272e-05
-4.85763e-05
-4.52259e-05
-4.13733e-05
-3.70149e-05
-3.2147e-05
-2.67654e-05
-2.08653e-05
-1.44418e-05
-7.48956e-06
-2.66958e-09
8.02502e-06
1.66001e-05
2.57293e-05
3.54201e-05
4.568e-05
5.65167e-05
6.79386e-05
7.99541e-05
9.25718e-05
0.000105801
0.00011965
0.00013413
0.000149248
0.000165016
0.000181444
0.00019854
0.000216316
0.000234781
0.000253945
0.000273819
0.000294411
0.000315732
0.000337789
0.000360591
0.000384146
0.000408461
0.000433541
0.000459392
0.000486017
0.000513417
0.000541593
0.000570543
0.000600262
0.000630741
0.000661968
0.000693929
0.000726603
0.000759963
0.000793978
0.000828611
0.000863817
0.000899546
0.000935741
-6.62031e-05
-6.67088e-05
-6.61865e-05
-6.53703e-05
-6.40204e-05
-6.21849e-05
-5.98618e-05
-5.70471e-05
-5.37383e-05
-4.99323e-05
-4.56258e-05
-4.08147e-05
-3.54948e-05
-2.96613e-05
-2.33091e-05
-1.64326e-05
-9.02594e-06
-1.08266e-06
7.40394e-06
1.64409e-05
2.60358e-05
3.61964e-05
4.69307e-05
5.82473e-05
7.01549e-05
8.26626e-05
9.57797e-05
0.000109516
0.000123881
0.000138884
0.000154537
0.00017085
0.000187833
0.000205497
0.000223853
0.000242911
0.000262682
0.000283176
0.000304403
0.000326373
0.000349095
0.000372577
0.000396828
0.000421854
0.000447662
0.000474256
0.000501639
0.000529813
0.000558776
0.000588525
0.000619055
0.000650354
0.000682411
0.000715206
0.000748718
0.00078292
0.000817778
0.000853253
0.000889303
0.000925878
-7.5069e-05
-7.55788e-05
-7.50668e-05
-7.42665e-05
-7.29383e-05
-7.11302e-05
-6.88403e-05
-6.60646e-05
-6.28003e-05
-5.90445e-05
-5.47936e-05
-5.00436e-05
-4.479e-05
-3.90281e-05
-3.27525e-05
-2.59576e-05
-1.86372e-05
-1.07847e-05
-2.3934e-06
6.54417e-06
1.60357e-05
2.60891e-05
3.67128e-05
4.79157e-05
5.97067e-05
7.20953e-05
8.50912e-05
9.87044e-05
0.000112945
0.000127824
0.000143352
0.000159541
0.0001764
0.000193943
0.000212179
0.000231121
0.000250779
0.000271166
0.000292291
0.000314165
0.000336799
0.000360203
0.000384384
0.000409352
0.000435114
0.000461676
0.000489042
0.000517216
0.000546198
0.000575986
0.000606577
0.000637964
0.000670135
0.000703077
0.000736769
0.00077119
0.00080631
0.000842097
0.000878514
0.000915517
-8.44657e-05
-8.49799e-05
-8.44788e-05
-8.36955e-05
-8.23904e-05
-8.06118e-05
-7.83574e-05
-7.56233e-05
-7.24067e-05
-6.87046e-05
-6.45133e-05
-5.98287e-05
-5.46462e-05
-4.8961e-05
-4.27675e-05
-3.606e-05
-2.88321e-05
-2.10772e-05
-1.27882e-05
-3.95746e-06
5.42284e-06
1.5361e-05
2.58657e-05
3.6946e-05
4.86113e-05
6.08714e-05
7.37364e-05
8.72168e-05
0.000101323
0.000116067
0.00013146
0.000147513
0.000164239
0.000181649
0.000199755
0.00021857
0.000238106
0.000258375
0.000279388
0.000301158
0.000323695
0.000347011
0.000371117
0.000396021
0.000421732
0.000448259
0.000475607
0.000503781
0.000532785
0.000562619
0.000593281
0.000624766
0.000657068
0.000690175
0.000724071
0.000758739
0.000794154
0.000830289
0.000867111
0.000904585
-9.43872e-05
-9.4906e-05
-9.44165e-05
-9.36514e-05
-9.2371e-05
-9.06237e-05
-8.84072e-05
-8.57175e-05
-8.25519e-05
-7.89071e-05
-7.47794e-05
-7.01646e-05
-6.50581e-05
-5.94548e-05
-5.33491e-05
-4.67351e-05
-3.96063e-05
-3.19558e-05
-2.37763e-05
-1.50601e-05
-5.79907e-06
4.01538e-06
1.43922e-05
2.53407e-05
3.68708e-05
4.89925e-05
6.17164e-05
7.50536e-05
8.90153e-05
0.000103613
0.00011886
0.000134767
0.000151347
0.000168613
0.000186577
0.000205254
0.000224656
0.000244795
0.000265686
0.00028734
0.000309771
0.000332991
0.000357011
0.000381844
0.000407498
0.000433985
0.000461312
0.000489486
0.000518512
0.000548394
0.000579132
0.000610726
0.00064317
0.000676457
0.000710577
0.000745514
0.000781251
0.000817763
0.000855026
0.000893006
-0.000104827
-0.000105351
-0.000104873
-0.000104128
-0.000102874
-0.00010116
-9.89835e-05
-9.63411e-05
-9.32296e-05
-8.96458e-05
-8.55859e-05
-8.10455e-05
-7.602e-05
-7.0504e-05
-6.4492e-05
-5.79777e-05
-5.09547e-05
-4.34157e-05
-3.53533e-05
-2.67596e-05
-1.76262e-05
-7.94424e-06
2.29548e-06
1.31027e-05
2.44875e-05
3.64605e-05
4.90328e-05
6.22157e-05
7.60213e-05
9.04617e-05
0.00010555
0.000121298
0.00013772
0.00015483
0.000172641
0.000191167
0.000210421
0.00023042
0.000251175
0.000272703
0.000295015
0.000318128
0.000342053
0.000366805
0.000392394
0.000418834
0.000446134
0.000474303
0.00050335
0.00053328
0.000564097
0.000595803
0.000628398
0.000661877
0.000696234
0.000731459
0.000767538
0.000804453
0.000842183
0.000880702
-0.000115778
-0.000116307
-0.000115843
-0.000115118
-0.000113892
-0.000112213
-0.00011008
-0.000107487
-0.000104434
-0.000100915
-9.69266e-05
-9.24653e-05
-8.75258e-05
-8.21028e-05
-7.61904e-05
-6.97823e-05
-6.28719e-05
-5.54517e-05
-4.75143e-05
-3.90513e-05
-3.00542e-05
-2.05139e-05
-1.04208e-05
2.3506e-07
1.14643e-05
2.32778e-05
3.56872e-05
4.87044e-05
6.23418e-05
7.66124e-05
9.15295e-05
0.000107107
0.000123358
0.000140298
0.000157941
0.000176302
0.000195397
0.00021524
0.000235847
0.000257234
0.000279415
0.000302408
0.000326226
0.000350885
0.000376399
0.000402782
0.000430047
0.000458205
0.000487267
0.000517242
0.000548137
0.000579957
0.000612706
0.000646383
0.000680987
0.000716513
0.00075295
0.000790287
0.000828507
0.000867589
-0.000127234
-0.000127768
-0.000127318
-0.000126614
-0.000125418
-0.000123777
-0.000121689
-0.00011915
-0.000116157
-0.000112706
-0.000108795
-0.000104417
-9.95691e-05
-9.42447e-05
-8.84381e-05
-8.21429e-05
-7.53521e-05
-6.80584e-05
-6.02539e-05
-5.19302e-05
-4.30784e-05
-3.36892e-05
-2.37527e-05
-1.32586e-05
-2.19581e-06
9.44698e-06
2.16818e-05
3.45211e-05
4.79779e-05
6.20657e-05
7.67985e-05
9.21907e-05
0.000108257
0.000125013
0.000142474
0.000160656
0.000179575
0.000199247
0.000219691
0.000240922
0.000262958
0.000285816
0.000309513
0.000334066
0.000359492
0.000385806
0.000413025
0.000441161
0.00047023
0.000500243
0.00053121
0.000563141
0.000596044
0.000629922
0.000664778
0.000700611
0.000737418
0.00077519
0.000813917
0.000853582
-0.000139187
-0.000139726
-0.000139291
-0.00013861
-0.000137444
-0.000135843
-0.000133803
-0.00013132
-0.000128392
-0.000125014
-0.000121183
-0.000116894
-0.000112143
-0.000106923
-0.000101228
-9.50529e-05
-8.83892e-05
-8.12297e-05
-7.35665e-05
-6.53908e-05
-5.66937e-05
-4.74654e-05
-3.76958e-05
-2.73742e-05
-1.64892e-05
-5.02892e-06
7.01903e-06
1.96677e-05
3.29306e-05
4.6822e-05
6.13564e-05
7.6549e-05
9.24154e-05
0.000108972
0.000126234
0.000144221
0.000162948
0.000182434
0.000202697
0.000223756
0.00024563
0.000268337
0.000291896
0.000316328
0.000341649
0.00036788
0.000395038
0.00042314
0.000452203
0.000482243
0.000513274
0.000545309
0.00057836
0.000612435
0.000647543
0.000683686
0.000720867
0.000759082
0.000798327
0.00083859
-0.000151628
-0.000152173
-0.000151753
-0.000151096
-0.000149964
-0.000148404
-0.000146414
-0.000143991
-0.000141131
-0.00013783
-0.000134084
-0.000129889
-0.00012524
-0.00012013
-0.000114554
-0.000108505
-0.000101976
-9.49591e-05
-8.74457e-05
-7.94272e-05
-7.08944e-05
-6.18372e-05
-5.22452e-05
-4.21073e-05
-3.14118e-05
-2.01463e-05
-8.29806e-06
4.1466e-06
1.72018e-05
3.08822e-05
4.52033e-05
6.01808e-05
7.58312e-05
9.21715e-05
0.000109219
0.000126993
0.00014551
0.000164792
0.000184856
0.000205725
0.000227417
0.000249954
0.000273358
0.000297649
0.000322848
0.000348977
0.000376057
0.000404108
0.00043315
0.000463202
0.000494283
0.00052641
0.000559599
0.000593864
0.000629217
0.000665667
0.000703221
0.000741881
0.000781649
0.000822519
-0.000164549
-0.0001651
-0.000164696
-0.000164065
-0.000162967
-0.000161451
-0.000159515
-0.000157154
-0.000154365
-0.000151145
-0.000147489
-0.000143393
-0.000138852
-0.000133859
-0.000128408
-0.000122493
-0.000116106
-0.00010924
-0.000101885
-9.40329e-05
-8.56743e-05
-7.67986e-05
-6.73953e-05
-5.74528e-05
-4.6959e-05
-3.59012e-05
-2.4266e-05
-1.20393e-05
7.93499e-07
1.42478e-05
2.83397e-05
4.30856e-05
5.8503e-05
7.46097e-05
9.14243e-05
0.000108966
0.000127255
0.000146312
0.000166158
0.000186816
0.000208306
0.000230653
0.000253879
0.000278008
0.000303064
0.00032907
0.000356051
0.000384031
0.000413032
0.000443078
0.000474191
0.000506394
0.000539706
0.000574147
0.000609733
0.00064648
0.0006844
0.000723501
0.000763791
0.00080527
-0.000177941
-0.000178499
-0.000178112
-0.000177507
-0.000176445
-0.000174976
-0.000173095
-0.0001708
-0.000168087
-0.000164952
-0.00016139
-0.000157398
-0.00015297
-0.0001481
-0.000142782
-0.000137008
-0.000130771
-0.000124064
-0.000116877
-0.000109201
-0.000101027
-9.23434e-05
-8.31402e-05
-7.34051e-05
-6.31257e-05
-5.22888e-05
-4.08807e-05
-2.88866e-05
-1.62915e-05
-3.07927e-06
1.07667e-05
2.52637e-05
4.043e-05
5.62843e-05
7.28465e-05
9.01368e-05
0.000108177
0.000126988
0.000146594
0.000167017
0.000188283
0.000210416
0.000233441
0.000257384
0.000282272
0.000308132
0.00033499
0.000362873
0.000391809
0.000421826
0.000452949
0.000485205
0.00051862
0.000553217
0.00058902
0.000626048
0.00066432
0.000703851
0.000744655
0.00078674
-0.000191795
-0.000192359
-0.00019199
-0.000191413
-0.000190389
-0.000188968
-0.000187146
-0.00018492
-0.000182286
-0.00017924
-0.000175778
-0.000171896
-0.000167587
-0.000162846
-0.000157667
-0.000152041
-0.000145963
-0.000139423
-0.000132413
-0.000124923
-0.000116944
-0.000108464
-9.94731e-05
-8.99579e-05
-7.9906e-05
-6.93039e-05
-5.81373e-05
-4.63912e-05
-3.40497e-05
-2.10964e-05
-7.51392e-06
6.71589e-06
2.16119e-05
3.71941e-05
5.3483e-05
7.05004e-05
8.82688e-05
0.000106812
0.000126153
0.000146319
0.000167335
0.000189228
0.000212026
0.000235756
0.000260449
0.000286134
0.00031284
0.0003406
0.000369443
0.000399402
0.000430508
0.00046279
0.000496281
0.00053101
0.000567004
0.00060429
0.000642894
0.000682838
0.000724142
0.00076682
-0.000206101
-0.000206671
-0.000206321
-0.000205773
-0.000204789
-0.000203418
-0.000201658
-0.000199504
-0.000196953
-0.000194001
-0.000190643
-0.000186875
-0.000182692
-0.000178087
-0.000173053
-0.000167584
-0.000161673
-0.000155309
-0.000148486
-0.000141192
-0.000133419
-0.000125154
-0.000116387
-0.000107104
-9.72935e-05
-8.69405e-05
-7.60306e-05
-6.45482e-05
-5.24771e-05
-3.98003e-05
-2.64996e-05
-1.25563e-05
2.04944e-06
1.73384e-05
3.33322e-05
5.00538e-05
6.75271e-05
8.57768e-05
0.000104829
0.00012471
0.000145449
0.000167074
0.000189615
0.000213103
0.00023757
0.000263049
0.000289572
0.000317175
0.000345893
0.000375762
0.000406816
0.000439093
0.000472628
0.000507455
0.00054361
0.000581126
0.000620035
0.000660365
0.000702145
0.000745398
-0.000220848
-0.000221425
-0.000221094
-0.000220577
-0.000219634
-0.000218316
-0.000216621
-0.000214542
-0.000212077
-0.000209223
-0.000205975
-0.000202327
-0.000198275
-0.000193812
-0.000188932
-0.000183627
-0.00017789
-0.000171713
-0.000165085
-0.000157999
-0.000150442
-0.000142404
-0.000133873
-0.000124837
-0.000115281
-0.000105192
-9.45541e-05
-8.3352e-05
-7.15687e-05
-5.91866e-05
-4.6187e-05
-3.25503e-05
-1.82561e-05
-3.28256e-06
1.23931e-05
2.87948e-05
4.59476e-05
6.38778e-05
8.26129e-05
0.000102182
0.000122613
0.000143939
0.000166192
0.000189404
0.000213611
0.000238849
0.000265154
0.000292564
0.000321119
0.000350859
0.000381825
0.000414057
0.000447596
0.000482485
0.000518763
0.000556471
0.000595648
0.000636332
0.000678557
0.000722357
-0.000236025
-0.000236609
-0.000236298
-0.000235812
-0.000234914
-0.000233651
-0.000232022
-0.000230023
-0.000227649
-0.000224897
-0.000221762
-0.00021824
-0.000214326
-0.000210012
-0.000205292
-0.00020016
-0.000194606
-0.000188624
-0.000182202
-0.000175333
-0.000168004
-0.000160205
-0.000151923
-0.000143146
-0.00013386
-0.00012405
-0.000113701
-0.000102796
-9.13185e-05
-7.92501e-05
-6.65716e-05
-5.32628e-05
-3.93022e-05
-2.46673e-05
-9.33426e-06
6.72189e-06
2.35275e-05
4.11102e-05
5.94989e-05
7.87239e-05
9.88169e-05
0.000119811
0.00014174
0.000164641
0.00018855
0.000213508
0.000239554
0.000266731
0.000295081
0.00032465
0.000355482
0.000387624
0.000421123
0.000456027
0.000492383
0.000530238
0.00056964
0.000610634
0.000653265
0.000697573
-0.000251621
-0.000252212
-0.000251922
-0.00025147
-0.000250616
-0.000249411
-0.000247852
-0.000245935
-0.000243655
-0.00024101
-0.000237995
-0.000234604
-0.000230833
-0.000226675
-0.000222123
-0.000217171
-0.000211809
-0.000206031
-0.000199826
-0.000193184
-0.000186095
-0.000178547
-0.000170528
-0.000162024
-0.000153022
-0.000143507
-0.000133463
-0.000122873
-0.00011172
-9.99848e-05
-8.76482e-05
-7.46891e-05
-6.10852e-05
-4.68133e-05
-3.18485e-05
-1.61648e-05
2.65314e-07
1.74707e-05
3.54818e-05
5.43304e-05
7.405e-05
9.46757e-05
0.000116244
0.000138794
0.000162366
0.000187001
0.000212745
0.000239642
0.000267741
0.000297089
0.000327738
0.000359739
0.000393146
0.000428012
0.000464392
0.000502341
0.000541915
0.000583168
0.000626153
0.000670922
-0.000267623
-0.000268222
-0.000267954
-0.000267536
-0.000266729
-0.000265584
-0.000264098
-0.000262266
-0.000260085
-0.000257551
-0.00025466
-0.000251406
-0.000247785
-0.000243789
-0.000239413
-0.000234649
-0.000229489
-0.000223924
-0.000217945
-0.000211542
-0.000204704
-0.000197419
-0.000189676
-0.00018146
-0.000172757
-0.000163553
-0.00015383
-0.000143574
-0.000132764
-0.000121383
-0.00010941
-9.68234e-05
-8.36003e-05
-6.97167e-05
-5.51469e-05
-3.98639e-05
-2.38391e-05
-7.04247e-06
1.05578e-05
2.89952e-05
4.83048e-05
6.85238e-05
8.96912e-05
0.000111848
0.000135037
0.000159305
0.000184698
0.000211265
0.00023906
0.000268134
0.000298543
0.000330346
0.0003636
0.000398368
0.000434711
0.000472692
0.000512375
0.000553824
0.000597102
0.000642272
-0.000284021
-0.000284627
-0.000284382
-0.000283999
-0.000283241
-0.000282158
-0.000280748
-0.000279005
-0.000276926
-0.000274508
-0.000271745
-0.000268634
-0.000265169
-0.000261343
-0.000257149
-0.000252582
-0.000247631
-0.000242289
-0.000236547
-0.000230394
-0.000223819
-0.00021681
-0.000209356
-0.000201442
-0.000193054
-0.000184177
-0.000174794
-0.000164889
-0.000154443
-0.000143437
-0.000131849
-0.000119659
-0.000106841
-9.33722e-05
-7.92253e-05
-6.43726e-05
-4.87844e-05
-3.24295e-05
-1.52748e-05
2.71443e-06
2.15752e-05
4.13466e-05
6.20697e-05
8.37881e-05
0.000106548
0.000130397
0.000155387
0.00018157
0.000209002
0.000237742
0.00026785
0.000299389
0.000332425
0.000367026
0.000403261
0.000441201
0.000480921
0.000522493
0.000565991
0.000611489
-0.0003008
-0.000301413
-0.000301192
-0.000300846
-0.000300138
-0.00029912
-0.000297788
-0.000296137
-0.000294165
-0.000291867
-0.000289239
-0.000286276
-0.000282972
-0.000279323
-0.00027532
-0.000270956
-0.000266224
-0.000261115
-0.00025562
-0.000249728
-0.000243428
-0.000236708
-0.000229556
-0.000221959
-0.000213901
-0.000205368
-0.000196343
-0.000186809
-0.000176746
-0.000166136
-0.000154957
-0.000143186
-0.0001308
-0.000117773
-0.000104078
-8.96861e-05
-7.4567e-05
-5.86885e-05
-4.20162e-05
-2.45138e-05
-6.14281e-06
1.31375e-05
3.33706e-05
5.46023e-05
7.68811e-05
0.000100258
0.000124788
0.000150527
0.000177535
0.000205875
0.000235613
0.000266817
0.00029956
0.000333917
0.000369964
0.000407783
0.000447455
0.000489065
0.000532697
0.000578438
-0.000317946
-0.000318568
-0.000318371
-0.000318063
-0.000317408
-0.000316456
-0.000315205
-0.00031365
-0.000311788
-0.000309614
-0.000307125
-0.000304316
-0.000301181
-0.000297715
-0.00029391
-0.000289759
-0.000285254
-0.000280388
-0.000275149
-0.000269529
-0.000263516
-0.000257098
-0.000250263
-0.000242997
-0.000235286
-0.000227114
-0.000218464
-0.000209319
-0.000199661
-0.000189469
-0.000178721
-0.000167396
-0.000155467
-0.00014291
-0.000129697
-0.000115798
-0.000101182
-8.58156e-05
-6.96638e-05
-5.26889e-05
-3.48509e-05
-1.61072e-05
3.58749e-06
2.42811e-05
4.60248e-05
6.88726e-05
9.28815e-05
0.000118112
0.000144628
0.000172497
0.00020179
0.00023258
0.000264948
0.000298974
0.000334745
0.00037235
0.00041188
0.00045343
0.000497097
0.000542978
-0.000335447
-0.000336077
-0.000335905
-0.000335636
-0.000335035
-0.000334153
-0.000332986
-0.00033153
-0.000329781
-0.000327737
-0.000325392
-0.000322742
-0.000319782
-0.000316505
-0.000312905
-0.000308975
-0.000304707
-0.000300092
-0.000295122
-0.000289785
-0.00028407
-0.000277967
-0.000271463
-0.000264543
-0.000257194
-0.000249399
-0.000241143
-0.000232408
-0.000223175
-0.000213423
-0.000203131
-0.000192275
-0.000180832
-0.000168774
-0.000156073
-0.000142699
-0.000128621
-0.000113805
-9.82131e-05
-8.18079e-05
-6.45478e-05
-4.63885e-05
-2.72832e-05
-7.18171e-06
1.39693e-05
3.62264e-05
5.96497e-05
8.4303e-05
0.000110254
0.000137575
0.000166341
0.000196632
0.000228534
0.000262136
0.000297532
0.000334819
0.000374099
0.000415478
0.000459065
0.000504972
-0.000353288
-0.000353926
-0.00035378
-0.000353552
-0.000353006
-0.000352195
-0.000351115
-0.000349761
-0.00034813
-0.000346219
-0.000344023
-0.000341538
-0.000338758
-0.000335678
-0.000332291
-0.00032859
-0.000324567
-0.000320214
-0.000315521
-0.000310478
-0.000305075
-0.000299299
-0.000293139
-0.000286581
-0.000279609
-0.00027221
-0.000264366
-0.00025606
-0.000247273
-0.000237984
-0.000228171
-0.000217812
-0.000206881
-0.000195351
-0.000183194
-0.00017038
-0.000156876
-0.000142647
-0.000127657
-0.000111865
-9.52293e-05
-7.77045e-05
-5.92417e-05
-3.97891e-05
-1.92914e-05
2.31048e-06
2.50793e-05
4.90822e-05
7.43903e-05
0.00010108
0.000129231
0.000158931
0.00019027
0.000223344
0.000258255
0.00029511
0.000334021
0.000375104
0.000418482
0.000464281
-0.000371454
-0.0003721
-0.00037198
-0.000371794
-0.000371306
-0.000370568
-0.000369577
-0.000368329
-0.000366819
-0.000365046
-0.000363004
-0.000360689
-0.000358096
-0.000355219
-0.000352052
-0.000348588
-0.000344818
-0.000340736
-0.000336331
-0.000331594
-0.000326513
-0.000321078
-0.000315276
-0.000309094
-0.000302517
-0.00029553
-0.000288117
-0.000280259
-0.000271939
-0.000263136
-0.000253827
-0.00024399
-0.000233599
-0.000222627
-0.000211046
-0.000198826
-0.000185932
-0.000172331
-0.000157984
-0.000142851
-0.000126888
-0.000110049
-9.22844e-05
-7.354e-05
-5.3759e-05
-3.28802e-05
-1.08383e-05
1.24365e-05
3.70192e-05
6.29895e-05
9.04329e-05
0.000119441
0.00015011
0.000182543
0.000216851
0.000253148
0.000291557
0.000332206
0.000375229
0.000420768
-0.000389929
-0.000390583
-0.000390491
-0.000390347
-0.000389919
-0.000389257
-0.000388357
-0.000387217
-0.000385833
-0.000384201
-0.000382318
-0.000380178
-0.000377778
-0.000375111
-0.000372171
-0.000368951
-0.000365444
-0.000361642
-0.000357535
-0.000353114
-0.000348368
-0.000343286
-0.000337856
-0.000332065
-0.000325898
-0.00031934
-0.000312376
-0.000304988
-0.000297156
-0.000288861
-0.00028008
-0.000270791
-0.000260969
-0.000250585
-0.000239613
-0.000228021
-0.000215776
-0.000202842
-0.000189182
-0.000174754
-0.000159513
-0.000143414
-0.000126404
-0.000108429
-8.94307e-05
-6.93458e-05
-4.81069e-05
-2.56414e-05
-1.87158e-06