/*--------------------------------*- C++ -*----------------------------------*\
  =========                 |
  \\      /  F ield         | OpenFOAM: The Open Source CFD Toolbox
   \\    /   O peration     | Website:  https://openfoam.org
    \\  /    A nd           | Version:  8
     \\/     M anipulation  |
\*---------------------------------------------------------------------------*/
FoamFile
{
    version     2.0;
    format      ascii;
    class       surfaceScalarField;
    location    "32.5";
    object      phi;
}
// * * * * * * * * * * * * * * * * * * * * * * * * * * * * * * * * * * * * * //

dimensions      [0 3 -1 0 0 0 0];

internalField   nonuniform List<scalar> 
22960
(
-2.05694e-07
2.05901e-07
-6.97527e-07
4.91833e-07
-1.30359e-06
6.0606e-07
-1.94803e-06
6.44439e-07
-2.60071e-06
6.52686e-07
-3.2538e-06
6.53085e-07
-3.90643e-06
6.52633e-07
-4.55896e-06
6.5253e-07
-5.21173e-06
6.5277e-07
-5.86495e-06
6.5322e-07
-6.51874e-06
6.53789e-07
-7.17317e-06
6.54427e-07
-7.82827e-06
6.55108e-07
-8.48409e-06
6.55813e-07
-9.14062e-06
6.5653e-07
-9.79786e-06
6.57248e-07
-1.04558e-05
6.57956e-07
-1.11145e-05
6.58643e-07
-1.17738e-05
6.59298e-07
-1.24337e-05
6.59909e-07
-1.30941e-05
6.60463e-07
-1.37551e-05
6.60949e-07
-1.44164e-05
6.61354e-07
-1.50781e-05
6.61664e-07
-1.574e-05
6.61865e-07
-1.64019e-05
6.61945e-07
-1.70638e-05
6.6189e-07
-1.77255e-05
6.61688e-07
-1.83868e-05
6.61325e-07
-1.90476e-05
6.60792e-07
-1.97077e-05
6.60079e-07
-2.03669e-05
6.59179e-07
-2.1025e-05
6.58088e-07
-2.16818e-05
6.56806e-07
-2.23371e-05
6.55339e-07
-2.29908e-05
6.537e-07
-2.36427e-05
6.51911e-07
-2.42927e-05
6.50004e-07
-2.49407e-05
6.48029e-07
-2.55868e-05
6.46053e-07
-2.6231e-05
6.44169e-07
-2.68735e-05
6.42505e-07
-2.75147e-05
6.41228e-07
-2.81553e-05
6.40564e-07
-2.87961e-05
6.40815e-07
-2.94385e-05
6.42381e-07
-3.00843e-05
6.45799e-07
-3.0736e-05
6.51787e-07
-3.13973e-05
6.61304e-07
-3.2073e-05
6.7563e-07
-3.27694e-05
6.96451e-07
-3.34954e-05
7.25982e-07
-3.42626e-05
7.67206e-07
-3.50874e-05
8.24744e-07
-3.59983e-05
9.10983e-07
-3.70748e-05
1.07646e-06
-3.85567e-05
1.48188e-06
-4.09813e-05
2.42466e-06
-4.78252e-05
6.84389e-06
1.56653e-05
-6.34905e-05
-4.98045e-07
7.03946e-07
-1.44827e-06
1.44205e-06
-2.58653e-06
1.74433e-06
-3.79351e-06
1.85142e-06
-5.02154e-06
1.88072e-06
-6.25499e-06
1.88653e-06
-7.48938e-06
1.88703e-06
-8.72359e-06
1.88674e-06
-9.9573e-06
1.88649e-06
-1.11904e-05
1.88631e-06
-1.24228e-05
1.88615e-06
-1.36543e-05
1.88593e-06
-1.48848e-05
1.88563e-06
-1.61142e-05
1.88519e-06
-1.73422e-05
1.8846e-06
-1.85688e-05
1.88383e-06
-1.97937e-05
1.88286e-06
-2.10167e-05
1.88165e-06
-2.22376e-05
1.88018e-06
-2.34561e-05
1.87843e-06
-2.4672e-05
1.87635e-06
-2.5885e-05
1.87393e-06
-2.70948e-05
1.87114e-06
-2.83011e-05
1.86793e-06
-2.95035e-05
1.86429e-06
-3.07017e-05
1.86018e-06
-3.18954e-05
1.85557e-06
-3.30841e-05
1.85044e-06
-3.42676e-05
1.84475e-06
-3.54453e-05
1.8385e-06
-3.66169e-05
1.83166e-06
-3.77819e-05
1.82423e-06
-3.894e-05
1.81621e-06
-4.00909e-05
1.80762e-06
-4.1234e-05
1.79849e-06
-4.23692e-05
1.78887e-06
-4.34961e-05
1.77883e-06
-4.46146e-05
1.76851e-06
-4.57246e-05
1.75806e-06
-4.68263e-05
1.7477e-06
-4.79198e-05
1.73772e-06
-4.90059e-05
1.72853e-06
-5.00853e-05
1.72064e-06
-5.11595e-05
1.71477e-06
-5.22305e-05
1.71185e-06
-5.33013e-05
1.71314e-06
-5.43758e-05
1.72036e-06
-5.54599e-05
1.73584e-06
-5.65615e-05
1.76286e-06
-5.76919e-05
1.80607e-06
-5.88677e-05
1.87223e-06
-6.01132e-05
1.97155e-06
-6.14661e-05
2.12011e-06
-6.29868e-05
2.34544e-06
-6.47784e-05
2.70252e-06
-6.70186e-05
3.31671e-06
-6.99868e-05
4.45006e-06
-7.41894e-05
6.62724e-06
-7.95195e-05
1.2174e-05
2.00779e-05
-8.39321e-05
-6.19877e-07
1.32382e-06
-1.76793e-06
2.59011e-06
-3.13186e-06
3.10826e-06
-4.5719e-06
3.29146e-06
-6.03509e-06
3.34391e-06
-7.50411e-06
3.35554e-06
-8.97384e-06
3.35675e-06
-1.04428e-05
3.35571e-06
-1.19105e-05
3.35419e-06
-1.33766e-05
3.35243e-06
-1.48409e-05
3.35043e-06
-1.63031e-05
3.34812e-06
-1.77629e-05
3.34544e-06
-1.92201e-05
3.34236e-06
-2.06743e-05
3.33883e-06
-2.21253e-05
3.33481e-06
-2.35727e-05
3.33026e-06
-2.50162e-05
3.32514e-06
-2.64554e-05
3.31941e-06
-2.789e-05
3.31302e-06
-2.93196e-05
3.30593e-06
-3.07437e-05
3.29809e-06
-3.2162e-05
3.28946e-06
-3.35741e-05
3.27998e-06
-3.49794e-05
3.26961e-06
-3.63775e-05
3.25831e-06
-3.7768e-05
3.24603e-06
-3.91503e-05
3.23273e-06
-4.05239e-05
3.21838e-06
-4.18884e-05
3.20295e-06
-4.32431e-05
3.18643e-06
-4.45877e-05
3.16881e-06
-4.59216e-05
3.15011e-06
-4.72444e-05
3.13037e-06
-4.85555e-05
3.10965e-06
-4.98547e-05
3.08806e-06
-5.11416e-05
3.06575e-06
-5.24161e-05
3.04295e-06
-5.36779e-05
3.01994e-06
-5.49274e-05
2.99713e-06
-5.61647e-05
2.97504e-06
-5.73905e-05
2.95438e-06
-5.8606e-05
2.93609e-06
-5.98126e-05
2.9214e-06
-6.10127e-05
2.91194e-06
-6.22095e-05
2.90993e-06
-6.34074e-05
2.91831e-06
-6.46127e-05
2.94114e-06
-6.58339e-05
2.984e-06
-6.70826e-05
3.05477e-06
-6.83752e-05
3.16483e-06
-6.97347e-05
3.33104e-06
-7.1194e-05
3.57944e-06
-7.28012e-05
3.95263e-06
-7.46255e-05
4.52679e-06
-7.67528e-05
5.44405e-06
-7.92576e-05
6.95484e-06
-8.21791e-05
9.54872e-06
-8.44063e-05
1.44012e-05
2.06466e-05
-8.4975e-05
-6.63102e-07
1.98692e-06
-1.88683e-06
3.81383e-06
-3.33432e-06
4.55575e-06
-4.85832e-06
4.81545e-06
-6.40495e-06
4.89055e-06
-7.9571e-06
4.90769e-06
-9.50979e-06
4.90944e-06
-1.10615e-05
4.90744e-06
-1.26117e-05
4.90434e-06
-1.41598e-05
4.90061e-06
-1.57057e-05
4.89628e-06
-1.72489e-05
4.8913e-06
-1.87891e-05
4.88562e-06
-2.03259e-05
4.87919e-06
-2.1859e-05
4.87196e-06
-2.33881e-05
4.86388e-06
-2.49127e-05
4.85489e-06
-2.64325e-05
4.84494e-06
-2.79471e-05
4.83396e-06
-2.9456e-05
4.82191e-06
-3.09588e-05
4.80872e-06
-3.2455e-05
4.79433e-06
-3.39442e-05
4.77867e-06
-3.54259e-05
4.76168e-06
-3.68996e-05
4.7433e-06
-3.83648e-05
4.72347e-06
-3.98209e-05
4.70214e-06
-4.12674e-05
4.67924e-06
-4.27037e-05
4.65474e-06
-4.41294e-05
4.62861e-06
-4.55438e-05
4.60083e-06
-4.69464e-05
4.57139e-06
-4.83366e-05
4.54034e-06
-4.97139e-05
4.50772e-06
-5.10779e-05
4.47365e-06
-5.24282e-05
4.43827e-06
-5.37642e-05
4.40181e-06
-5.50858e-05
4.36457e-06
-5.63929e-05
4.32699e-06
-5.76854e-05
4.28963e-06
-5.89636e-05
4.25323e-06
-6.0228e-05
4.21879e-06
-6.14795e-05
4.1876e-06
-6.27195e-05
4.16137e-06
-6.39499e-05
4.14238e-06
-6.51736e-05
4.13362e-06
-6.63944e-05
4.13913e-06
-6.76176e-05
4.16433e-06
-6.88503e-05
4.21668e-06
-7.0102e-05
4.3065e-06
-7.13856e-05
4.44839e-06
-7.27179e-05
4.66339e-06
-7.41211e-05
4.98255e-06
-7.56217e-05
5.45322e-06
-7.72454e-05
6.15051e-06
-7.89954e-05
7.19408e-06
-8.081e-05
8.76946e-06
-8.24484e-05
1.11871e-05
-8.29403e-05
1.48931e-05
1.93288e-05
-8.16224e-05
-6.73356e-07
2.66028e-06
-1.92188e-06
5.06236e-06
-3.39694e-06
6.03081e-06
-4.94818e-06
6.36669e-06
-6.52137e-06
6.46374e-06
-8.09961e-06
6.48593e-06
-9.67816e-06
6.48798e-06
-1.12556e-05
6.48489e-06
-1.28314e-05
6.4801e-06
-1.4405e-05
6.47426e-06
-1.59762e-05
6.46745e-06
-1.75445e-05
6.45963e-06
-1.91097e-05
6.45076e-06
-2.06712e-05
6.44076e-06
-2.22289e-05
6.4296e-06
-2.37822e-05
6.41719e-06
-2.53308e-05
6.40348e-06
-2.68742e-05
6.3884e-06
-2.84121e-05
6.37188e-06
-2.99441e-05
6.35383e-06
-3.14695e-05
6.3342e-06
-3.29881e-05
6.31289e-06
-3.44993e-05
6.28983e-06
-3.60025e-05
6.26493e-06
-3.74973e-05
6.23813e-06
-3.89832e-05
6.20934e-06
-4.04596e-05
6.17849e-06
-4.19259e-05
6.14553e-06
-4.33815e-05
6.11038e-06
-4.48259e-05
6.07302e-06
-4.62585e-05
6.03342e-06
-4.76787e-05
5.99159e-06
-4.90859e-05
5.94755e-06
-5.04796e-05
5.90139e-06
-5.18592e-05
5.85323e-06
-5.32242e-05
5.80326e-06
-5.45741e-05
5.75176e-06
-5.59087e-05
5.69912e-06
-5.72275e-05
5.64585e-06
-5.85306e-05
5.59265e-06
-5.98178e-05
5.54044e-06
-6.10894e-05
5.49042e-06
-6.2346e-05
5.44417e-06
-6.35884e-05
5.40376e-06
-6.48179e-05
5.37188e-06
-6.60364e-05
5.3521e-06
-6.72463e-05
5.34911e-06
-6.84512e-05
5.36916e-06
-6.96551e-05
5.42066e-06
-7.08636e-05
5.51498e-06
-7.20829e-05
5.66771e-06
-7.332e-05
5.90043e-06
-7.45808e-05
6.24339e-06
-7.58672e-05
6.7396e-06
-7.71673e-05
7.45061e-06
-7.84355e-05
8.46235e-06
-7.95576e-05
9.89151e-06
-8.02665e-05
1.1896e-05
-7.99523e-05
1.45788e-05
1.76547e-05
-7.82782e-05
-6.74025e-07
3.33431e-06
-1.92975e-06
6.31809e-06
-3.41332e-06
7.51438e-06
-4.97309e-06
7.92646e-06
-6.55445e-06
8.0451e-06
-8.14054e-06
8.07203e-06
-9.72678e-06
8.07422e-06
-1.13118e-05
8.06995e-06
-1.28952e-05
8.06342e-06
-1.44764e-05
8.05546e-06
-1.60551e-05
8.04616e-06
-1.76309e-05
8.03549e-06
-1.92036e-05
8.0234e-06
-2.07726e-05
8.00982e-06
-2.23377e-05
7.99469e-06
-2.38985e-05
7.97794e-06
-2.54545e-05
7.95948e-06
-2.70053e-05
7.93924e-06
-2.85505e-05
7.91712e-06
-3.00898e-05
7.89305e-06
-3.16225e-05
7.86692e-06
-3.31482e-05
7.83865e-06
-3.46665e-05
7.80813e-06
-3.61769e-05
7.77527e-06
-3.76787e-05
7.73998e-06
-3.91715e-05
7.70216e-06
-4.06548e-05
7.66172e-06
-4.21278e-05
7.61858e-06
-4.35901e-05
7.57267e-06
-4.5041e-05
7.52394e-06
-4.648e-05
7.47237e-06
-4.79063e-05
7.41793e-06
-4.93194e-05
7.36067e-06
-5.07187e-05
7.30067e-06
-5.21035e-05
7.23806e-06
-5.34733e-05
7.17305e-06
-5.48275e-05
7.10596e-06
-5.61656e-05
7.03721e-06
-5.74872e-05
6.96739e-06
-5.87918e-05
6.89727e-06
-6.00792e-05
6.82787e-06
-6.13493e-05
6.76053e-06
-6.26021e-05
6.69699e-06
-6.38379e-05
6.63951e-06
-6.5057e-05
6.59102e-06
-6.62602e-05
6.55531e-06
-6.74485e-05
6.53735e-06
-6.86229e-05
6.54362e-06
-6.97849e-05
6.58259e-06
-7.09353e-05
6.66547e-06
-7.20747e-05
6.80704e-06
-7.32011e-05
7.02689e-06
-7.43087e-05
7.35097e-06
-7.53826e-05
7.81349e-06
-7.63907e-05
8.45867e-06
-7.72692e-05
9.34093e-06
-7.79002e-05
1.05225e-05
-7.80649e-05
1.20607e-05
-7.74288e-05
1.39427e-05
1.59916e-05
-7.57657e-05
-6.7305e-07
4.00736e-06
-1.93076e-06
7.5758e-06
-3.41718e-06
9.00081e-06
-4.98014e-06
9.48941e-06
-6.5646e-06
9.62956e-06
-8.15366e-06
9.66109e-06
-9.74277e-06
9.66333e-06
-1.13307e-05
9.65785e-06
-1.29168e-05
9.64959e-06
-1.45009e-05
9.63952e-06
-1.60825e-05
9.62776e-06
-1.76613e-05
9.61428e-06
-1.92369e-05
9.59901e-06
-2.0809e-05
9.5819e-06
-2.23772e-05
9.56286e-06
-2.3941e-05
9.54181e-06
-2.55002e-05
9.51865e-06
-2.70543e-05
9.49331e-06
-2.86028e-05
9.46566e-06
-3.01454e-05
9.43562e-06
-3.16815e-05
9.40307e-06
-3.32108e-05
9.36789e-06
-3.47326e-05
9.32999e-06
-3.62466e-05
9.28922e-06
-3.77521e-05
9.2455e-06
-3.92486e-05
9.19869e-06
-4.07356e-05
9.1487e-06
-4.22124e-05
9.09541e-06
-4.36785e-05
9.03876e-06
-4.51332e-05
8.97865e-06
-4.65759e-05
8.91505e-06
-4.80059e-05
8.84794e-06
-4.94226e-05
8.77734e-06
-5.08252e-05
8.7033e-06
-5.22132e-05
8.62598e-06
-5.35857e-05
8.54558e-06
-5.49421e-05
8.46241e-06
-5.62819e-05
8.37692e-06
-5.76042e-05
8.28971e-06
-5.89085e-05
8.20158e-06
-6.01942e-05
8.11359e-06
-6.14608e-05
8.02712e-06
-6.27077e-05
7.94394e-06
-6.39346e-05
7.86635e-06
-6.51409e-05
7.7973e-06
-6.63261e-05
7.74056e-06
-6.74897e-05
7.70095e-06
-6.86308e-05
7.68467e-06
-6.97478e-05
7.69962e-06
-7.08382e-05
7.75588e-06
-7.18975e-05
7.8663e-06
-7.29176e-05
8.04707e-06
-7.3885e-05
8.31836e-06
-7.47763e-05
8.7047e-06
-7.55521e-05
9.23451e-06
-7.61488e-05
9.93765e-06
-7.64661e-05
1.08398e-05
-7.63535e-05
1.19481e-05
-7.56252e-05
1.32145e-05
1.45065e-05
-7.41401e-05
-6.72105e-07
4.67946e-06
-1.93051e-06
8.8342e-06
-3.41844e-06
1.04887e-05
-4.98332e-06
1.10543e-05
-6.56978e-06
1.1216e-05
-8.16082e-06
1.12521e-05
-9.75187e-06
1.12544e-05
-1.13417e-05
1.12477e-05
-1.29298e-05
1.12377e-05
-1.45159e-05
1.12256e-05
-1.60995e-05
1.12114e-05
-1.76804e-05
1.11952e-05
-1.92582e-05
1.11768e-05
-2.08325e-05
1.11562e-05
-2.2403e-05
1.11333e-05
-2.39692e-05
1.11081e-05
-2.55309e-05
1.10803e-05
-2.70876e-05
1.105e-05
-2.86388e-05
1.10169e-05
-3.01841e-05
1.0981e-05
-3.17232e-05
1.09421e-05
-3.32554e-05
1.09001e-05
-3.47803e-05
1.08549e-05
-3.62975e-05
1.08064e-05
-3.78063e-05
1.07543e-05
-3.93063e-05
1.06986e-05
-4.07967e-05
1.06392e-05
-4.22771e-05
1.05758e-05
-4.37469e-05
1.05085e-05
-4.52052e-05
1.0437e-05
-4.66516e-05
1.03614e-05
-4.80852e-05
1.02816e-05
-4.95055e-05
1.01976e-05
-5.09115e-05
1.01093e-05
-5.23026e-05
1.00171e-05
-5.3678e-05
9.92095e-06
-5.50368e-05
9.82124e-06
-5.63783e-05
9.71838e-06
-5.77015e-05
9.61295e-06
-5.90056e-05
9.50572e-06
-6.02897e-05
9.39771e-06
-6.15529e-05
9.29027e-06
-6.27941e-05
9.18509e-06
-6.40121e-05
9.08437e-06
-6.52057e-05
8.99089e-06
-6.63733e-05
8.90815e-06
-6.75129e-05
8.84057e-06
-6.86219e-05
8.79366e-06
-6.96965e-05
8.77428e-06
-7.07316e-05
8.79091e-06
-7.17191e-05
8.85387e-06
-7.26476e-05
8.9755e-06
-7.34994e-05
9.17016e-06
-7.42484e-05
9.45372e-06
-7.4856e-05
9.84212e-06
-7.52666e-05
1.03483e-05
-7.54033e-05
1.09765e-05
-7.51668e-05
1.17115e-05
-7.44523e-05
1.25e-05
1.32407e-05
-7.31865e-05
-6.71343e-07
5.3508e-06
-1.93024e-06
1.00931e-05
-3.41952e-06
1.1978e-05
-4.9862e-06
1.2621e-05
-6.57459e-06
1.28044e-05
-8.16759e-06
1.28451e-05
-9.76061e-06
1.28474e-05
-1.13524e-05
1.28395e-05
-1.29426e-05
1.28279e-05
-1.45307e-05
1.28137e-05
-1.61165e-05
1.27972e-05
-1.76995e-05
1.27782e-05
-1.92796e-05
1.27568e-05
-2.08563e-05
1.27329e-05
-2.24292e-05
1.27063e-05
-2.3998e-05
1.26769e-05
-2.55623e-05
1.26446e-05
-2.71217e-05
1.26094e-05
-2.86758e-05
1.2571e-05
-3.02242e-05
1.25293e-05
-3.17664e-05
1.24843e-05
-3.33019e-05
1.24356e-05
-3.48302e-05
1.23833e-05
-3.63509e-05
1.23271e-05
-3.78634e-05
1.22668e-05
-3.93672e-05
1.22024e-05
-4.08616e-05
1.21336e-05
-4.2346e-05
1.20603e-05
-4.38198e-05
1.19823e-05
-4.52824e-05
1.18996e-05
-4.6733e-05
1.1812e-05
-4.81708e-05
1.17195e-05
-4.95952e-05
1.16219e-05
-5.10053e-05
1.15194e-05
-5.24003e-05
1.1412e-05
-5.37792e-05
1.12999e-05
-5.51411e-05
1.11832e-05
-5.64851e-05
1.10623e-05
-5.781e-05
1.09379e-05
-5.91148e-05
1.08105e-05
-6.03982e-05
1.06811e-05
-6.16589e-05
1.0551e-05
-6.28954e-05
1.04215e-05
-6.41059e-05
1.02949e-05
-6.52883e-05
1.01734e-05
-6.64403e-05
1.00601e-05
-6.75587e-05
9.95896e-06
-6.86395e-05
9.87446e-06
-6.96775e-05
9.81222e-06
-7.06654e-05
9.77888e-06
-7.15937e-05
9.78214e-06
-7.24489e-05
9.83068e-06
-7.32124e-05
9.93371e-06
-7.38589e-05
1.01002e-05
-7.4354e-05
1.03372e-05
-7.46525e-05
1.06468e-05
-7.46982e-05
1.10221e-05
-7.44267e-05
1.144e-05
-7.37788e-05
1.18522e-05
1.21829e-05
-7.2721e-05
-6.70688e-07
6.02149e-06
-1.93014e-06
1.13526e-05
-3.4209e-06
1.34688e-05
-4.98953e-06
1.41896e-05
-6.58003e-06
1.43949e-05
-8.17519e-06
1.44403e-05
-9.77042e-06
1.44426e-05
-1.13645e-05
1.44336e-05
-1.29569e-05
1.44203e-05
-1.45474e-05
1.44042e-05
-1.61355e-05
1.43853e-05
-1.77211e-05
1.43638e-05
-1.93037e-05
1.43395e-05
-2.0883e-05
1.43122e-05
-2.24587e-05
1.4282e-05
-2.40304e-05
1.42486e-05
-2.55978e-05
1.4212e-05
-2.71603e-05
1.41719e-05
-2.87177e-05
1.41284e-05
-3.02695e-05
1.40811e-05
-3.18153e-05
1.403e-05
-3.33545e-05
1.39749e-05
-3.48867e-05
1.39155e-05
-3.64115e-05
1.38518e-05
-3.79282e-05
1.37835e-05
-3.94362e-05
1.37105e-05
-4.09351e-05
1.36325e-05
-4.24242e-05
1.35493e-05
-4.39028e-05
1.34609e-05
-4.53702e-05
1.3367e-05
-4.68258e-05
1.32675e-05
-4.82686e-05
1.31623e-05
-4.96979e-05
1.30513e-05
-5.11129e-05
1.29344e-05
-5.25126e-05
1.28117e-05
-5.38959e-05
1.26832e-05
-5.52619e-05
1.25492e-05
-5.66095e-05
1.24099e-05
-5.79372e-05
1.22657e-05
-5.92439e-05
1.21172e-05
-6.0528e-05
1.19652e-05
-6.17877e-05
1.18107e-05
-6.30212e-05
1.16551e-05
-6.42263e-05
1.14999e-05
-6.54002e-05
1.13473e-05
-6.65398e-05
1.11997e-05
-6.76411e-05
1.10603e-05
-6.86993e-05
1.09326e-05
-6.97079e-05
1.08209e-05
-7.0659e-05
1.073e-05
-7.1542e-05
1.06651e-05
-7.23431e-05
1.06318e-05
-7.30444e-05
1.06351e-05
-7.3623e-05
1.06788e-05
-7.405e-05
1.07641e-05
-7.429e-05
1.08869e-05
-7.43029e-05
1.10351e-05
-7.40473e-05
1.11844e-05
-7.34899e-05
1.12948e-05
1.131e-05
-7.2617e-05
-6.70064e-07
6.69156e-06
-1.93018e-06
1.26127e-05
-3.42262e-06
1.49612e-05
-4.99341e-06
1.57604e-05
-6.58626e-06
1.59877e-05
-8.18385e-06
1.60379e-05
-9.78154e-06
1.60403e-05
-1.13781e-05
1.60302e-05
-1.29731e-05
1.60153e-05
-1.45662e-05
1.59972e-05
-1.61571e-05
1.59762e-05
-1.77455e-05
1.59522e-05
-1.9331e-05
1.5925e-05
-2.09134e-05
1.58946e-05
-2.24922e-05
1.58608e-05
-2.40671e-05
1.58236e-05
-2.56379e-05
1.57827e-05
-2.7204e-05
1.5738e-05
-2.87651e-05
1.56895e-05
-3.03207e-05
1.56368e-05
-3.18705e-05
1.55798e-05
-3.34139e-05
1.55183e-05
-3.49505e-05
1.54522e-05
-3.64798e-05
1.53811e-05
-3.80013e-05
1.5305e-05
-3.95143e-05
1.52235e-05
-4.10183e-05
1.51365e-05
-4.25127e-05
1.50437e-05
-4.39968e-05
1.4945e-05
-4.54698e-05
1.484e-05
-4.6931e-05
1.47288e-05
-4.83796e-05
1.46109e-05
-4.98148e-05
1.44864e-05
-5.12356e-05
1.43552e-05
-5.26409e-05
1.42171e-05
-5.40298e-05
1.40721e-05
-5.54011e-05
1.39204e-05
-5.67534e-05
1.37622e-05
-5.80854e-05
1.35976e-05
-5.93954e-05
1.34273e-05
-6.06819e-05
1.32516e-05
-6.19426e-05
1.30715e-05
-6.31755e-05
1.28879e-05
-6.43778e-05
1.27022e-05
-6.55465e-05
1.25159e-05
-6.66777e-05
1.2331e-05
-6.77671e-05
1.21497e-05
-6.88091e-05
1.19746e-05
-6.97968e-05
1.18086e-05
-7.07219e-05
1.1655e-05
-7.15736e-05
1.15168e-05
-7.23388e-05
1.1397e-05
-7.30011e-05
1.12974e-05
-7.35407e-05
1.12183e-05
-7.39337e-05
1.11571e-05
-7.41534e-05
1.11065e-05
-7.41711e-05
1.10528e-05
-7.39604e-05
1.09736e-05
-7.35022e-05
1.08366e-05
1.06e-05
-7.27921e-05
-6.69425e-07
7.36098e-06
-1.93031e-06
1.38736e-05
-3.42463e-06
1.64555e-05
-4.99783e-06
1.73336e-05
-6.59328e-06
1.75832e-05
-8.19356e-06
1.76381e-05
-9.794e-06
1.76408e-05
-1.13934e-05
1.76295e-05
-1.29913e-05
1.76132e-05
-1.45873e-05
1.75933e-05
-1.61812e-05
1.75701e-05
-1.77727e-05
1.75437e-05
-1.93615e-05
1.75137e-05
-2.09472e-05
1.74803e-05
-2.25295e-05
1.74431e-05
-2.41081e-05
1.74021e-05
-2.56826e-05
1.73572e-05
-2.72526e-05
1.73081e-05
-2.88178e-05
1.72547e-05
-3.03777e-05
1.71967e-05
-3.1932e-05
1.7134e-05
-3.34801e-05
1.70664e-05
-3.50216e-05
1.69937e-05
-3.65561e-05
1.69155e-05
-3.80828e-05
1.68317e-05
-3.96014e-05
1.67421e-05
-4.11112e-05
1.66462e-05
-4.26115e-05
1.6544e-05
-4.41017e-05
1.64352e-05
-4.55811e-05
1.63194e-05
-4.70488e-05
1.61965e-05
-4.85041e-05
1.60662e-05
-4.9946e-05
1.59284e-05
-5.13736e-05
1.57827e-05
-5.27858e-05
1.56292e-05
-5.41814e-05
1.54677e-05
-5.55591e-05
1.52982e-05
-5.69177e-05
1.51207e-05
-5.82554e-05
1.49354e-05
-5.95707e-05
1.47425e-05
-6.08615e-05
1.45424e-05
-6.21256e-05
1.43356e-05
-6.33605e-05
1.41228e-05
-6.45632e-05
1.3905e-05
-6.57304e-05
1.36831e-05
-6.68579e-05
1.34585e-05
-6.79409e-05
1.32327e-05
-6.89737e-05
1.30073e-05
-6.99492e-05
1.27841e-05
-7.0859e-05
1.25648e-05
-7.16929e-05
1.23508e-05
-7.24387e-05
1.21428e-05
-7.30819e-05
1.19406e-05
-7.36056e-05
1.1742e-05
-7.39908e-05
1.15423e-05
-7.4217e-05
1.13328e-05
-7.42641e-05
1.10999e-05
-7.41145e-05
1.08241e-05
-7.37575e-05
1.04795e-05
1.0035e-05
-7.31925e-05
-6.68747e-07
8.02973e-06
-1.9305e-06
1.51353e-05
-3.4269e-06
1.79519e-05
-5.00275e-06
1.89094e-05
-6.60105e-06
1.91815e-05
-8.20427e-06
1.92414e-05
-9.80773e-06
1.92442e-05
-1.14102e-05
1.9232e-05
-1.30112e-05
1.92142e-05
-1.46105e-05
1.91926e-05
-1.62077e-05
1.91674e-05
-1.78027e-05
1.91386e-05
-1.9395e-05
1.91061e-05
-2.09844e-05
1.90697e-05
-2.25705e-05
1.90293e-05
-2.41531e-05
1.89847e-05
-2.57317e-05
1.89358e-05
-2.73061e-05
1.88825e-05
-2.88758e-05
1.88244e-05
-3.04405e-05
1.87614e-05
-3.19997e-05
1.86932e-05
-3.3553e-05
1.86197e-05
-3.50999e-05
1.85406e-05
-3.66399e-05
1.84556e-05
-3.81726e-05
1.83644e-05
-3.96973e-05
1.82668e-05
-4.12134e-05
1.81624e-05
-4.27204e-05
1.8051e-05
-4.42175e-05
1.79323e-05
-4.5704e-05
1.78059e-05
-4.71792e-05
1.76716e-05
-4.8642e-05
1.75291e-05
-5.00917e-05
1.7378e-05
-5.15271e-05
1.72182e-05
-5.29472e-05
1.70493e-05
-5.43508e-05
1.68713e-05
-5.57365e-05
1.66839e-05
-5.71028e-05
1.6487e-05
-5.84481e-05
1.62807e-05
-5.97705e-05
1.60649e-05
-6.10679e-05
1.58398e-05
-6.23379e-05
1.56056e-05
-6.35778e-05
1.53628e-05
-6.47845e-05
1.51116e-05
-6.59543e-05
1.48529e-05
-6.7083e-05
1.45872e-05
-6.81656e-05
1.43153e-05
-6.91962e-05
1.4038e-05
-7.0168e-05
1.37559e-05
-7.10728e-05
1.34697e-05
-7.19012e-05
1.31791e-05
-7.26421e-05
1.28837e-05
-7.32828e-05
1.25813e-05
-7.38093e-05
1.22685e-05
-7.42063e-05
1.19393e-05
-7.44583e-05
1.15848e-05
-7.45507e-05
1.11923e-05
-7.44718e-05
1.07451e-05
-7.4215e-05
1.02227e-05
9.60156e-06
-7.37815e-05
-6.68015e-07
8.69774e-06
-1.93072e-06
1.6398e-05
-3.42939e-06
1.94506e-05
-5.00812e-06
2.04882e-05
-6.60952e-06
2.07829e-05
-8.21594e-06
2.08478e-05
-9.82267e-06
2.08509e-05
-1.14285e-05
2.08378e-05
-1.30329e-05
2.08186e-05
-1.46357e-05
2.07954e-05
-1.62366e-05
2.07683e-05
-1.78352e-05
2.07372e-05
-1.94314e-05
2.07022e-05
-2.10248e-05
2.06631e-05
-2.26151e-05
2.06196e-05
-2.4202e-05
2.05716e-05
-2.57852e-05
2.0519e-05
-2.73643e-05
2.04615e-05
-2.89389e-05
2.0399e-05
-3.05087e-05
2.03312e-05
-3.20733e-05
2.02578e-05
-3.36322e-05
2.01786e-05
-3.5185e-05
2.00934e-05
-3.67312e-05
2.00018e-05
-3.82703e-05
1.99035e-05
-3.98017e-05
1.97982e-05
-4.13249e-05
1.96856e-05
-4.28392e-05
1.95653e-05
-4.4344e-05
1.9437e-05
-4.58384e-05
1.93004e-05
-4.73218e-05
1.91549e-05
-4.87931e-05
1.90004e-05
-5.02515e-05
1.88364e-05
-5.16959e-05
1.86626e-05
-5.31252e-05
1.84786e-05
-5.45382e-05
1.82842e-05
-5.59333e-05
1.8079e-05
-5.7309e-05
1.78628e-05
-5.86637e-05
1.76354e-05
-5.99954e-05
1.73965e-05
-6.13018e-05
1.71462e-05
-6.25805e-05
1.68843e-05
-6.38286e-05
1.66109e-05
-6.50428e-05
1.63259e-05
-6.62196e-05
1.60296e-05
-6.73545e-05
1.57221e-05
-6.84425e-05
1.54034e-05
-6.9478e-05
1.50735e-05
-7.04543e-05
1.47322e-05
-7.13637e-05
1.43791e-05
-7.21976e-05
1.4013e-05
-7.29461e-05
1.36322e-05
-7.35983e-05
1.32335e-05
-7.41425e-05
1.28127e-05
-7.45663e-05
1.23632e-05
-7.48579e-05
1.18764e-05
-7.50064e-05
1.13408e-05
-7.50037e-05
1.07424e-05
-7.48456e-05
1.00646e-05
9.28947e-06
-7.45335e-05
-6.67218e-07
9.36496e-06
-1.93094e-06
1.76617e-05
-3.43207e-06
2.09517e-05
-5.01389e-06
2.207e-05
-6.61864e-06
2.23877e-05
-8.22851e-06
2.24577e-05
-9.83875e-06
2.24612e-05
-1.14482e-05
2.24472e-05
-1.30563e-05
2.24268e-05
-1.46629e-05
2.24019e-05
-1.62676e-05
2.2373e-05
-1.78703e-05
2.23399e-05
-1.94706e-05
2.23026e-05
-2.10683e-05
2.22608e-05
-2.26631e-05
2.22144e-05
-2.42547e-05
2.21632e-05
-2.58427e-05
2.2107e-05
-2.74269e-05
2.20457e-05
-2.90068e-05
2.19789e-05
-3.05821e-05
2.19065e-05
-3.21525e-05
2.18282e-05
-3.37175e-05
2.17436e-05
-3.52767e-05
2.16526e-05
-3.68296e-05
2.15547e-05
-3.83757e-05
2.14496e-05
-3.99144e-05
2.1337e-05
-4.14453e-05
2.12165e-05
-4.29676e-05
2.10877e-05
-4.44807e-05
2.09502e-05
-4.59839e-05
2.08035e-05
-4.74764e-05
2.06474e-05
-4.89572e-05
2.04812e-05
-5.04254e-05
2.03046e-05
-5.188e-05
2.01172e-05
-5.33197e-05
1.99184e-05
-5.47434e-05
1.97079e-05
-5.61495e-05
1.94851e-05
-5.75365e-05
1.92498e-05
-5.89025e-05
1.90014e-05
-6.02456e-05
1.87397e-05
-6.15636e-05
1.84641e-05
-6.28538e-05
1.81745e-05
-6.41133e-05
1.78704e-05
-6.5339e-05
1.75516e-05
-6.6527e-05
1.72176e-05
-6.76731e-05
1.68682e-05
-6.87724e-05
1.65027e-05
-6.98194e-05
1.61205e-05
-7.08078e-05
1.57206e-05
-7.17306e-05
1.53019e-05
-7.25798e-05
1.48622e-05
-7.33467e-05
1.43991e-05
-7.40219e-05
1.39088e-05
-7.45957e-05
1.33864e-05
-7.5058e-05
1.28255e-05
-7.53994e-05
1.22177e-05
-7.56116e-05
1.15531e-05
-7.56887e-05
1.08195e-05
-7.56277e-05
1.00036e-05
9.09145e-06
-7.54297e-05
-6.66346e-07
1.00313e-05
-1.93114e-06
1.89265e-05
-3.43489e-06
2.24555e-05
-5.02003e-06
2.36551e-05
-6.62835e-06
2.3996e-05
-8.2419e-06
2.40712e-05
-9.8559e-06
2.40752e-05
-1.14691e-05
2.40604e-05
-1.30812e-05
2.40388e-05
-1.46918e-05
2.40125e-05
-1.63007e-05
2.39819e-05
-1.79077e-05
2.39469e-05
-1.95125e-05
2.39073e-05
-2.11148e-05
2.38631e-05
-2.27144e-05
2.38139e-05
-2.43109e-05
2.37597e-05
-2.59041e-05
2.37002e-05
-2.74937e-05
2.36353e-05
-2.90793e-05
2.35645e-05
-3.06606e-05
2.34878e-05
-3.22372e-05
2.34048e-05
-3.38087e-05
2.33151e-05
-3.53747e-05
2.32186e-05
-3.69347e-05
2.31147e-05
-3.84884e-05
2.30032e-05
-4.0035e-05
2.28837e-05
-4.15742e-05
2.27556e-05
-4.31052e-05
2.26187e-05
-4.46275e-05
2.24724e-05
-4.61402e-05
2.23163e-05
-4.76426e-05
2.21498e-05
-4.91339e-05
2.19724e-05
-5.0613e-05
2.17837e-05
-5.20788e-05
2.15831e-05
-5.35303e-05
2.13699e-05
-5.49662e-05
2.11437e-05
-5.63849e-05
2.09038e-05
-5.77849e-05
2.06498e-05
-5.91643e-05
2.03808e-05
-6.05212e-05
2.00965e-05
-6.18532e-05
1.97962e-05
-6.31578e-05
1.94791e-05
-6.44322e-05
1.91448e-05
-6.5673e-05
1.87924e-05
-6.68766e-05
1.84212e-05
-6.80388e-05
1.80304e-05
-6.91549e-05
1.76188e-05
-7.02197e-05
1.71853e-05
-7.12274e-05
1.67283e-05
-7.21713e-05
1.62458e-05
-7.30444e-05
1.57353e-05
-7.3839e-05
1.51937e-05
-7.4547e-05
1.46168e-05
-7.51601e-05
1.39994e-05
-7.56699e-05
1.33353e-05
-7.60689e-05
1.26168e-05
-7.63506e-05
1.18347e-05
-7.65102e-05
1.09791e-05
-7.65453e-05
1.00387e-05
9.0025e-06
-7.64563e-05
-6.6539e-07
1.06967e-05
-1.93131e-06
2.01925e-05
-3.43783e-06
2.3962e-05
-5.02648e-06
2.52438e-05
-6.63859e-06
2.56081e-05
-8.25604e-06
2.56887e-05
-9.87404e-06
2.56932e-05
-1.14914e-05
2.56778e-05
-1.31076e-05
2.56551e-05
-1.47225e-05
2.56274e-05
-1.63358e-05
2.55953e-05
-1.79473e-05
2.55584e-05
-1.95568e-05
2.55168e-05
-2.1164e-05
2.54703e-05
-2.27686e-05
2.54186e-05
-2.43705e-05
2.53615e-05
-2.59692e-05
2.52989e-05
-2.75645e-05
2.52306e-05
-2.91561e-05
2.51561e-05
-3.07437e-05
2.50754e-05
-3.23269e-05
2.4988e-05
-3.39053e-05
2.48936e-05
-3.54786e-05
2.47919e-05
-3.70464e-05
2.46824e-05
-3.86081e-05
2.45649e-05
-4.01632e-05
2.44388e-05
-4.17113e-05
2.43037e-05
-4.32517e-05
2.41591e-05
-4.47838e-05
2.40045e-05
-4.63068e-05
2.38393e-05
-4.78201e-05
2.36631e-05
-4.93227e-05
2.34751e-05
-5.08138e-05
2.32747e-05
-5.22921e-05
2.30614e-05
-5.37567e-05
2.28345e-05
-5.52062e-05
2.25932e-05
-5.66391e-05
2.23368e-05
-5.80539e-05
2.20645e-05
-5.94488e-05
2.17757e-05
-6.08217e-05
2.14694e-05
-6.21704e-05
2.11449e-05
-6.34924e-05
2.08011e-05
-6.47848e-05
2.04372e-05
-6.60444e-05
2.0052e-05
-6.72677e-05
1.96445e-05
-6.84507e-05
1.92134e-05
-6.95889e-05
1.8757e-05
-7.06775e-05
1.82738e-05
-7.17108e-05
1.77616e-05
-7.2683e-05
1.7218e-05
-7.35877e-05
1.664e-05
-7.4418e-05
1.6024e-05
-7.5167e-05
1.53657e-05
-7.58273e-05
1.46598e-05
-7.63921e-05
1.39002e-05
-7.68551e-05
1.30797e-05
-7.72107e-05
1.21904e-05
-7.7455e-05
1.12234e-05
-7.75857e-05
1.01694e-05
9.0194e-06
-7.76026e-05
-6.64342e-07
1.1361e-05
-1.93142e-06
2.14595e-05
-3.44085e-06
2.54714e-05
-5.03321e-06
2.68361e-05
-6.64931e-06
2.72242e-05
-8.27088e-06
2.73102e-05
-9.89308e-06
2.73154e-05
-1.15147e-05
2.72994e-05
-1.31353e-05
2.72757e-05
-1.47547e-05
2.72469e-05
-1.63727e-05
2.72132e-05
-1.7989e-05
2.71747e-05
-1.96035e-05
2.71313e-05
-2.12158e-05
2.70826e-05
-2.28257e-05
2.70285e-05
-2.44331e-05
2.69689e-05
-2.60376e-05
2.69035e-05
-2.7639e-05
2.6832e-05
-2.9237e-05
2.67541e-05
-3.08312e-05
2.66696e-05
-3.24214e-05
2.65782e-05
-3.40072e-05
2.64794e-05
-3.55882e-05
2.63729e-05
-3.7164e-05
2.62583e-05
-3.87343e-05
2.61351e-05
-4.02985e-05
2.6003e-05
-4.1856e-05
2.58613e-05
-4.34065e-05
2.57095e-05
-4.49491e-05
2.55471e-05
-4.64833e-05
2.53735e-05
-4.80083e-05
2.51881e-05
-4.95232e-05
2.499e-05
-5.10273e-05
2.47788e-05
-5.25193e-05
2.45535e-05
-5.39982e-05
2.43134e-05
-5.54628e-05
2.40577e-05
-5.69116e-05
2.37856e-05
-5.8343e-05
2.3496e-05
-5.97553e-05
2.3188e-05
-6.11465e-05
2.28606e-05
-6.25144e-05
2.25128e-05
-6.38566e-05
2.21433e-05
-6.51702e-05
2.17508e-05
-6.64523e-05
2.13341e-05
-6.76994e-05
2.08916e-05
-6.89076e-05
2.04216e-05
-7.00729e-05
1.99223e-05
-7.11905e-05
1.93914e-05
-7.22555e-05
1.88266e-05
-7.32624e-05
1.82249e-05
-7.42054e-05
1.7583e-05
-7.50785e-05
1.68971e-05
-7.58753e-05
1.61626e-05
-7.65898e-05
1.53742e-05
-7.72158e-05
1.45262e-05
-7.7748e-05
1.36118e-05
-7.81814e-05
1.26239e-05
-7.85126e-05
1.15545e-05
-7.87392e-05
1.0396e-05
9.14043e-06
-7.88602e-05
-6.63192e-07
1.20242e-05
-1.93144e-06
2.27278e-05
-3.44391e-06
2.69839e-05
-5.04015e-06
2.84324e-05
-6.66044e-06
2.88445e-05
-8.28633e-06
2.89361e-05
-9.91293e-06
2.8942e-05
-1.1539e-05
2.89255e-05
-1.31643e-05
2.89009e-05
-1.47884e-05
2.8871e-05
-1.64112e-05
2.88361e-05
-1.80326e-05
2.87961e-05
-1.96522e-05
2.87509e-05
-2.12699e-05
2.87003e-05
-2.28855e-05
2.86441e-05
-2.44986e-05
2.85821e-05
-2.61092e-05
2.8514e-05
-2.7717e-05
2.84397e-05
-2.93216e-05
2.83587e-05
-3.09228e-05
2.82708e-05
-3.25203e-05
2.81757e-05
-3.41138e-05
2.80729e-05
-3.57029e-05
2.7962e-05
-3.72873e-05
2.78427e-05
-3.88666e-05
2.77144e-05
-4.04403e-05
2.75767e-05
-4.2008e-05
2.74289e-05
-4.3569e-05
2.72706e-05
-4.51229e-05
2.7101e-05
-4.6669e-05
2.69196e-05
-4.82065e-05
2.67256e-05
-4.97347e-05
2.65183e-05
-5.12528e-05
2.62968e-05
-5.27596e-05
2.60603e-05
-5.42542e-05
2.5808e-05
-5.57352e-05
2.55388e-05
-5.72014e-05
2.52518e-05
-5.86512e-05
2.49458e-05
-6.0083e-05
2.46197e-05
-6.14947e-05
2.42724e-05
-6.28843e-05
2.39024e-05
-6.42494e-05
2.35084e-05
-6.55874e-05
2.30888e-05
-6.68954e-05
2.26421e-05
-6.817e-05
2.21662e-05
-6.94077e-05
2.16594e-05
-7.06046e-05
2.11192e-05
-7.17564e-05
2.05432e-05
-7.28584e-05
1.99286e-05
-7.39057e-05
1.92722e-05
-7.48931e-05
1.85704e-05
-7.5815e-05
1.7819e-05
-7.6666e-05
1.70135e-05
-7.74404e-05
1.61487e-05
-7.81331e-05
1.52189e-05
-7.8739e-05
1.42178e-05
-7.92539e-05
1.31387e-05
-7.96742e-05
1.19749e-05
-7.99975e-05
1.07192e-05
9.36511e-06
-8.02222e-05
-6.61931e-07
1.26862e-05
-1.93136e-06
2.39972e-05
-3.44698e-06
2.84995e-05
-5.04727e-06
3.00327e-05
-6.67193e-06
3.04691e-05
-8.30231e-06
3.05665e-05
-9.93351e-06
3.05732e-05
-1.15643e-05
3.05563e-05
-1.31943e-05
3.05309e-05
-1.48234e-05
3.05e-05
-1.64513e-05
3.0464e-05
-1.80778e-05
3.04226e-05
-1.97029e-05
3.03759e-05
-2.13262e-05
3.03236e-05
-2.29475e-05
3.02655e-05
-2.45668e-05
3.02013e-05
-2.61837e-05
3.0131e-05
-2.7798e-05
3.0054e-05
-2.94096e-05
2.99703e-05
-3.10181e-05
2.98793e-05
-3.26232e-05
2.97808e-05
-3.42248e-05
2.96744e-05
-3.58224e-05
2.95597e-05
-3.74158e-05
2.94361e-05
-3.90045e-05
2.93032e-05
-4.05883e-05
2.91604e-05
-4.21665e-05
2.90072e-05
-4.37388e-05
2.88429e-05
-4.53046e-05
2.86668e-05
-4.68632e-05
2.84783e-05
-4.84141e-05
2.82765e-05
-4.99565e-05
2.80606e-05
-5.14895e-05
2.78298e-05
-5.30122e-05
2.75831e-05
-5.45237e-05
2.73194e-05
-5.60226e-05
2.70377e-05
-5.75078e-05
2.67369e-05
-5.89777e-05
2.64157e-05
-6.04307e-05
2.60728e-05
-6.18651e-05
2.57068e-05
-6.32788e-05
2.53161e-05
-6.46695e-05
2.48991e-05