/*--------------------------------*- C++ -*----------------------------------*\
  =========                 |
  \\      /  F ield         | OpenFOAM: The Open Source CFD Toolbox
   \\    /   O peration     | Website:  https://openfoam.org
    \\  /    A nd           | Version:  8
     \\/     M anipulation  |
\*---------------------------------------------------------------------------*/
FoamFile
{
    version     2.0;
    format      ascii;
    class       volScalarField;
    location    "2";
    object      p;
}
// * * * * * * * * * * * * * * * * * * * * * * * * * * * * * * * * * * * * * //

dimensions      [0 2 -2 0 0 0 0];

internalField   nonuniform List<scalar> 
12504
(
-0.0103444
-0.0130096
-0.0185968
-0.027066
-0.0380928
-0.0512527
-0.0660697
-0.0819993
-0.098436
-0.114756
-0.130362
-0.144724
-0.157402
-0.168057
-0.17646
-0.1825
-0.18618
-0.187586
-0.186848
-0.184116
-0.179546
-0.173306
-0.165599
-0.156669
-0.146794
-0.136271
-0.125395
-0.114441
-0.10365
-0.0932183
-0.0832985
-0.0739982
-0.0653847
-0.0574909
-0.0503211
-0.0438581
-0.0380673
-0.0329047
-0.028317
-0.0242512
-0.0206477
-0.0174568
-0.0146167
-0.0120904
-0.009809
-0.00776067
-0.00585196
-0.00412184
-0.00241208
-0.000871596
-0.00842384
-0.0111601
-0.0169017
-0.0256039
-0.0369289
-0.0504374
-0.0656364
-0.0819611
-0.0987833
-0.115455
-0.131357
-0.145945
-0.158775
-0.169518
-0.177958
-0.184004
-0.187666
-0.189033
-0.188233
-0.185409
-0.180716
-0.174322
-0.166438
-0.157314
-0.147239
-0.136523
-0.125471
-0.114364
-0.103448
-0.0929195
-0.0829311
-0.0735874
-0.064952
-0.0570539
-0.0498932
-0.0434492
-0.0376842
-0.0325518
-0.0279967
-0.0239645
-0.0203943
-0.0172359
-0.0144268
-0.0119302
-0.00967651
-0.00765472
-0.00577073
-0.00406503
-0.00237754
-0.000860948
-0.004524
-0.00740979
-0.0134659
-0.0226416
-0.0345748
-0.0487954
-0.0647744
-0.0819057
-0.0995147
-0.116904
-0.133409
-0.148455
-0.161591
-0.172506
-0.181019
-0.187069
-0.190688
-0.191971
-0.191039
-0.188027
-0.183082
-0.176376
-0.168128
-0.158608
-0.148128
-0.137021
-0.125611
-0.114195
-0.103026
-0.0923049
-0.0821807
-0.0727523
-0.0640755
-0.0561709
-0.0490306
-0.0426265
-0.0369148
-0.0318441
-0.0273552
-0.0233907
-0.0198878
-0.0167946
-0.014048
-0.0116103
-0.00941261
-0.00744318
-0.00560954
-0.00395083
-0.00231018
-0.000837178
0.00146052
-0.00165721
-0.00819882
-0.0181059
-0.0309808
-0.0463054
-0.0634945
-0.0818774
-0.100706
-0.119206
-0.136643
-0.152391
-0.165991
-0.177159
-0.185767
-0.191807
-0.195343
-0.196483
-0.19534
-0.192033
-0.186697
-0.179506
-0.170694
-0.160562
-0.149456
-0.137746
-0.125787
-0.1139
-0.102351
-0.0913416
-0.0810173
-0.071467
-0.062734
-0.0548257
-0.0477215
-0.0413821
-0.0357543
-0.0307792
-0.026392
-0.0225307
-0.0191298
-0.016135
-0.0134824
-0.0111332
-0.00901929
-0.00712805
-0.00536956
-0.00378074
-0.00221014
-0.000801369
0.00969738
0.00625749
-0.000958037
-0.011882
-0.0260692
-0.042935
-0.0618162
-0.0819496
-0.102483
-0.122531
-0.141259
-0.157972
-0.172196
-0.18369
-0.192401
-0.198397
-0.201789
-0.202708
-0.201258
-0.197533
-0.191649
-0.18378
-0.174181
-0.163193
-0.151216
-0.138671
-0.125959
-0.113431
-0.101368
-0.0899778
-0.0793943
-0.0696918
-0.0608955
-0.0529936
-0.045948
-0.0397038
-0.0341954
-0.0293536
-0.0251061
-0.0213855
-0.0181224
-0.0152599
-0.0127331
-0.0105019
-0.00849942
-0.00671182
-0.00505282
-0.00355629
-0.00207823
-0.000754036
0.0204194
0.0165556
0.00845363
-0.00381105
-0.0197334
-0.0386434
-0.0597742
-0.0822362
-0.105033
-0.127129
-0.14755
-0.165511
-0.180522
-0.192402
-0.201202
-0.207097
-0.210256
-0.210854
-0.208978
-0.204687
-0.198071
-0.189297
-0.17865
-0.166527
-0.153399
-0.139757
-0.126065
-0.112713
-0.100004
-0.0881418
-0.077248
-0.0673736
-0.0585176
-0.0506427
-0.0436874
-0.0375769
-0.0322294
-0.0275633
-0.0234972
-0.019957
-0.0168691
-0.0141736
-0.0118047
-0.00972087
-0.00785708
-0.00619806
-0.0046622
-0.00327958
-0.00191568
-0.000695634
0.0339325
0.0295278
0.0202961
0.00631643
-0.0118346
-0.0333827
-0.0574273
-0.0829079
-0.108633
-0.133359
-0.155929
-0.175442
-0.191396
-0.203699
-0.212547
-0.218256
-0.221065
-0.221215
-0.218768
-0.213734
-0.206161
-0.196208
-0.184196
-0.1706
-0.155988
-0.140948
-0.126021
-0.111649
-0.0981555
-0.0857393
-0.0744966
-0.0644452
-0.0555483
-0.0477348
-0.0409133
-0.0349846
-0.0298474
-0.0254052
-0.0215662
-0.0182488
-0.0153751
-0.0128821
-0.0107033
-0.00879606
-0.00709764
-0.00559139
-0.00420137
-0.00295332
-0.00172413
-0.000626738
0.0506263
0.0455447
0.034902
0.0187684
-0.00219754
-0.0271007
-0.0548721
-0.084221
-0.113687
-0.141741
-0.166977
-0.188357
-0.205382
-0.218106
-0.226923
-0.232339
-0.234648
-0.234203
-0.231015
-0.225021
-0.21621
-0.204729
-0.190953
-0.175464
-0.158964
-0.142166
-0.125712
-0.110108
-0.0956931
-0.0826513
-0.0710392
-0.0608262
-0.051927
-0.0442267
-0.0375974
-0.0319101
-0.0270413
-0.0228776
-0.0193159
-0.0162666
-0.0136479
-0.0113935
-0.00943714
-0.00773513
-0.00622796
-0.00489761
-0.00367495
-0.00258088
-0.00150561
-0.000548053
0.0709864
0.0650693
0.0526905
0.0338825
0.00939679
-0.0197452
-0.0522637
-0.0865577
-0.120794
-0.153033
-0.181524
-0.205067
-0.223228
-0.236292
-0.244942
-0.249934
-0.251582
-0.250391
-0.246274
-0.239059
-0.228652
-0.215183
-0.199115
-0.181191
-0.162294
-0.143304
-0.124988
-0.107919
-0.092451
-0.0787309
-0.0667549
-0.0564232
-0.0475858
-0.0400724
-0.0337108
-0.0283382
-0.0238056
-0.019982
-0.0167523
-0.0140194
-0.0116976
-0.00971846
-0.00801653
-0.00654768
-0.00525648
-0.00412381
-0.00308854
-0.00216633
-0.00126254
-0.000460413
0.0956103
0.0886732
0.074184
0.052081
0.0232203
-0.0112728
-0.049849
-0.0904905
-0.130843
-0.168355
-0.200775
-0.226719
-0.245932
-0.259114
-0.267364
-0.271606
-0.272622
-0.270568
-0.265328
-0.256588
-0.244123
-0.228046
-0.208968
-0.187882
-0.165932
-0.144214
-0.123643
-0.104865
-0.0882236
-0.0738024
-0.061504
-0.0511324
-0.0424526
-0.0352258
-0.0292278
-0.0242575
-0.0201395
-0.0167245
-0.013886
-0.01152
-0.00953816
-0.00787083
-0.00645449
-0.00524545
-0.00419339
-0.0032785
-0.00244879
-0.00171445
-0.000997756
-0.000364791
0.125222
0.117055
0.100031
0.0738933
0.0396145
-0.00166212
-0.0480249
-0.0969009
-0.145177
-0.189364
-0.226486
-0.254946
-0.274875
-0.287706
-0.295227
-0.298751
-0.298878
-0.295849
-0.289311
-0.278695
-0.263564
-0.244024
-0.220935
-0.195688
-0.169812
-0.144691
-0.121409
-0.100667
-0.0827613
-0.067661
-0.0551311
-0.0448441
-0.0364559
-0.0296452
-0.0241285
-0.0196641
-0.0160494
-0.0131179
-0.0107332
-0.00878627
-0.00718766
-0.00586793
-0.00476696
-0.00384261
-0.00305083
-0.00237167
-0.00176344
-0.00123076
-0.000714521
-0.00026233
0.160688
0.151064
0.131034
0.0999908
0.0590221
0.00907746
-0.0474175
-0.107196
-0.165918
-0.218586
-0.261214
-0.292032
-0.31193
-0.323553
-0.329756
-0.332662
-0.331664
-0.32771
-0.319839
-0.306997
-0.288384
-0.264159
-0.235635
-0.204832
-0.173854
-0.144468
-0.117942
-0.094984
-0.075769
-0.0600771
-0.0474719
-0.03745
-0.0295316
-0.0232991
-0.0184045
-0.0145646
-0.0115513
-0.00918345
-0.00731764
-0.00584222
-0.00466913
-0.00373108
-0.0029731
-0.00235587
-0.0018429
-0.00141482
-0.00104133
-0.000721583
-0.000416578
-0.000154358
0.203025
0.19172
0.168179
0.131238
0.0820313
0.0209134
-0.0489471
-0.123583
-0.196552
-0.260121
-0.308846
-0.341121
-0.359448
-0.368473
-0.372381
-0.373221
-0.372508
-0.368106
-0.359146
-0.343825
-0.320693
-0.290036
-0.253996
-0.215646
-0.177955
-0.143204
-0.112822
-0.0874192
-0.0669239
-0.0508144
-0.0383694
-0.0288571
-0.021634
-0.0161747
-0.0120645
-0.00898073
-0.00667409
-0.0049531
-0.00367154
-0.00271879
-0.00201119
-0.00148604
-0.0010955
-0.000804609
-0.000585748
-0.00042096
-0.000292441
-0.000194026
-0.000108133
-4.23704e-05
0.253394
0.24024
0.212659
0.168764
0.109403
0.0337735
-0.0539696
-0.149342
-0.242534
-0.320765
-0.375802
-0.406903
-0.420295
-0.424343
-0.425104
-0.424889
-0.423973
-0.41989
-0.410455
-0.392412
-0.363396
-0.323941
-0.277455
-0.228695
-0.182028
-0.140464
-0.105524
-0.0775098
-0.0558806
-0.0396456
-0.0276928
-0.0190043
-0.0127489
-0.00828739
-0.005141
-0.00295398
-0.00146255
-0.000471444
0.00016282
0.000545262
0.000751509
0.000836825
0.000839716
0.000789151
0.000702488
0.000595378
0.000472173
0.000344072
0.000206217
7.19926e-05
0.313078
0.298045
0.265934
0.214075
0.142062
0.0474152
-0.0649454
-0.189964
-0.31171
-0.410386
-0.471895
-0.496402
-0.497957
-0.492245
-0.487948
-0.486475
-0.486775
-0.485649
-0.477914
-0.457293
-0.420416
-0.368761
-0.307835
-0.244862
-0.186231
-0.135976
-0.0956257
-0.0648631
-0.0423557
-0.0264053
-0.0153703
-0.00788411
-0.00290805
0.000309587
0.00230289
0.0034502
0.00401992
0.00420264
0.0041323
0.00390295
0.0035781
0.00320248
0.00280297
0.00240079
0.00200176
0.00161829
0.00124051
0.000884259
0.00052154
0.000186959
0.383425
0.36674
0.329866
0.269269
0.181243
0.0612382
-0.0868506
-0.257306
-0.41629
-0.540006
-0.605924
-0.614908
-0.593825
-0.570667
-0.557338
-0.553548
-0.556797
-0.563619
-0.562761
-0.542132
-0.496331
-0.428284
-0.347275
-0.264803
-0.190397
-0.129327
-0.0827651
-0.0492605
-0.0262638
-0.0111031
-0.00146969
0.00440613
0.00777988
0.00950721
0.0101638
0.0101372
0.00968864
0.0089947
0.00817231
0.00729889
0.00642157
0.00557143
0.00476141
0.00400335
0.00329035
0.00263071
0.00199976
0.00141756
0.00083261
0.00030063
0.465725
0.447998
0.406976
0.337525
0.229432
0.0746485
-0.128088
-0.37232
-0.581873
-0.721398
-0.775468
-0.753316
-0.69815
-0.649272
-0.62066
-0.609539
-0.618434
-0.641012
-0.655277
-0.641035
-0.589427
-0.50394
-0.398225
-0.2903
-0.195167
-0.120414
-0.0666408
-0.0304993
-0.00756796
0.00617355
0.0138561
0.0176906
0.0191408
0.0191449
0.0182994
0.0169833
0.0154378
0.013815
0.0122073
0.0106698
0.00922935
0.00790022
0.00667943
0.00556792
0.0045452
0.00361463
0.00273654
0.00193461
0.00113398
0.000411003
0.560849
0.543289
0.500575
0.423757
0.292814
0.0903693
-0.202177
-0.549377
-0.757946
-0.898043
-0.922124
-0.859065
-0.770475
-0.696402
-0.651797
-0.634519
-0.653647
-0.696753
-0.731282
-0.730589
-0.680743
-0.583134
-0.454324
-0.319483
-0.200988
-0.110415
-0.04842
-0.00954502
0.0129701
0.0248302
0.0301428
0.0316036
0.0308831
0.0289879
0.0265188
0.023833
0.02114
0.0185591
0.0161516
0.0139458
0.0119442
0.0101423
0.00851932
0.00706425
0.00574238
0.00455154
0.00343708
0.0024258
0.00142007
0.000516016
0.668521
0.653355
0.614119
0.534617
0.384305
0.122177
-0.225606
-0.645573
-0.973904
-1.09274
-1.08057
-0.938542
-0.7984
-0.714186
-0.647558
-0.629432
-0.662766
-0.725396
-0.778496
-0.791381
-0.747183
-0.644095
-0.499215
-0.342868
-0.204096
-0.0989771
-0.0291842
0.0122343
0.0341539
0.043942
0.0467037
0.0456358
0.0426231
0.038741
0.0345915
0.0305038
0.0266498
0.0231105
0.0199118
0.0170514
0.0145057
0.012249
0.0102423
0.0084615
0.00685773
0.00542282
0.00408765
0.00288157
0.00168535
0.000613605
0.786389
0.77737
0.748988
0.677983
0.52211
0.231691
-0.215821
-0.69637
-1.06443
-0.813407
-0.713616
-0.655488
-0.634103
-0.676761
-0.746974
-0.80717
-0.825521
-0.782917
-0.675687
-0.520866
-0.351203
-0.199404
-0.0844639
-0.00923592
0.0338107
0.0548824
0.0625714
0.0628015
0.059221
0.0539267
0.0480698
0.0422578
0.0367931
0.0318084
0.0273443
0.0233893
0.0199088
0.0168519
0.0141715
0.0118095
0.00972915
0.00786746
0.00621027
0.00467488
0.00329265
0.00192448
0.000701763
0.909447
0.911388
0.901835
0.861367
0.711368
0.393823
-0.104793
-0.706862
-0.661987
-0.643249
-0.690201
-0.758561
-0.815839
-0.830436
-0.78363
-0.672019
-0.512709
-0.338651
-0.182958
-0.0649631
0.0118232
0.0547652
0.0744288
0.0799575
0.0777555
0.0717926
0.0643393
0.056617
0.0492399
0.0424857
0.0364494
0.0311316
0.0264839
0.0224399
0.0189219
0.0158618
0.0131837
0.010838
0.008749
0.00689672
0.00518623
0.00365039
0.00213246
0.00077859
1.03014
1.04616
1.06721
1.07243
0.952767
0.643877
-0.672836
-0.647877
-0.685518
-0.747396
-0.796025
-0.802568
-0.749234
-0.634591
-0.476505
-0.306441
-0.155266
-0.0406742
0.0336775
0.0745475
0.0920884
0.0953639
0.0908881
0.0827744
0.0733948
0.0640161
0.0552547
0.0473649
0.0404073
0.0343461
0.0290988
0.0245703
0.0206582
0.0172755
0.0143301
0.0117612
0.00948179
0.00746663
0.00561035
0.00394693
0.0023048
0.000842358
1.13703
1.16924
1.22549
1.28625
1.21857
0.981966
-0.636158
-0.658013
-0.712111
-0.752161
-0.749361
-0.691974
-0.578068
-0.426053
-0.264822
-0.122785
-0.0153263
0.0541698
0.09176
0.106813
0.107939
0.101499
0.0915996
0.0806451
0.0699197
0.0600363
0.0512288
0.0435294
0.0368722
0.0311466
0.0262333
0.0220099
0.0183734
0.0152186
0.0124756
0.0100481
0.00790662
0.00593755
0.0041756
0.00243763
0.00089158
1.21788
1.26422
1.35327
1.46803
1.47117
1.3542
-0.61802
-0.617046
-0.668515
-0.704513
-0.697921
-0.636821
-0.524656
-0.379359
-0.227758
-0.0946097
0.00553539
0.0701056
0.10454
0.117421
0.116852
0.10896
0.0977808
0.0857101
0.0740343
0.0633605
0.0539078
0.0456882
0.0386141
0.0325552
0.0273745
0.0229356
0.019124
0.0158252
0.0129627
0.0104339
0.00820612
0.00616014
0.00433111
0.00252794
0.000925076
1.26154
1.31619
1.42495
1.57125
1.64867
-0.552836
-0.587128
-0.638967
-0.673928
-0.665756
-0.603932
-0.493332
-0.352154
-0.206093
-0.0785625
0.0172017
0.0787957
0.111345
0.122976
0.121475
0.112812
0.100965
0.0883153
0.0761476
0.0650653
0.0552795
0.0467916
0.0395031
0.0332729
0.0279552
0.0234059
0.0195049
0.0161328
0.0132095
0.0106293
0.00835779
0.00627282
0.0044098
0.00257361
0.00094203
1.26154
1.31619
1.42495
1.57125
1.68524
-0.529441
-0.587127
-0.638966
-0.673926
-0.665755
-0.603931
-0.493332
-0.352154
-0.206093
-0.0785623
0.0172019
0.0787957
0.111344
0.122976
0.121475
0.112812
0.100965
0.0883152
0.0761475
0.0650651
0.0552795
0.0467917
0.0395032
0.0332729
0.0279552
0.0234059
0.0195049
0.0161328
0.0132096
0.0106293
0.00835786
0.00627287
0.00440981
0.00257362
0.00094203
1.21788
1.26422
1.35327
1.46803
1.57461
-0.565964
-0.617042
-0.668511
-0.70451
-0.697919
-0.636819
-0.524655
-0.379359
-0.227757
-0.0946093
0.00553577
0.0701055
0.104539
0.11742
0.116851
0.108959
0.0977804
0.0857097
0.0740339
0.0633602
0.0539078
0.0456884
0.0386144
0.0325554
0.0273746
0.0229354
0.0191238
0.0158251
0.0129627
0.010434
0.00820634
0.00616031
0.00433118
0.00252795
0.000925079
1.13703
1.16924
1.22549
1.28625
1.34347
1.27612
-0.623033
-0.658008
-0.712105
-0.752155
-0.749359
-0.691971
-0.578067
-0.426053
-0.264822
-0.122785
-0.0153259
0.0541693
0.0917585
0.106811
0.107937
0.101497
0.091599
0.0806444
0.069919
0.0600358
0.0512288
0.0435298
0.0368727
0.031147
0.0262333
0.0220097
0.0183732
0.0152185
0.0124757
0.0100484
0.00790701
0.00593785
0.00417576
0.0024377
0.000891597
1.03014
1.04617
1.06722
1.07243
1.07746
0.914649
-0.645438
-0.685512
-0.747388
-0.796017
-0.802559
-0.74923
-0.634589
-0.476505
-0.306441
-0.155265
-0.040674
0.0336768
0.0745455
0.0920861
0.0953621
0.090887
0.0827735
0.0733939
0.0640153
0.0552542
0.047365
0.0404078
0.0343467
0.0290992
0.0245702
0.0206579
0.0172752
0.01433
0.0117614
0.00948226
0.00746718
0.00561081
0.00394721
0.00230493
0.000842398
0.909448
0.911389
0.901835
0.861368
0.820781
0.503584
0.158563
-0.665572
-0.648785
-0.690195
-0.758553
-0.815831
-0.83043
-0.783626
-0.672018
-0.512709
-0.338651
-0.182958
-0.0649629
0.0118225
0.0547635
0.0744268
0.079956
0.0777545
0.0717916
0.0643383
0.0566161
0.0492395
0.042486
0.0364501
0.0311323
0.0264842
0.0224397
0.0189215
0.0158615
0.0131836
0.0108383
0.00874964
0.00689744
0.00518682
0.00365076
0.00213266
0.000778653
0.78639
0.777371
0.748988
0.677984
0.522111
0.296025
-0.204913
-0.619568
-0.712799
-0.661343
-0.634096
-0.676754
-0.746967
-0.807163
-0.825515
-0.782915
-0.675688
-0.520867
-0.351204
-0.199404
-0.0844634
-0.00923617
0.0338097
0.0548814
0.0625708
0.0628008
0.0592201
0.0539256
0.0480691
0.0422578
0.0367937
0.0318093
0.0273451
0.0233896
0.0199085
0.0168514
0.0141711
0.0118096
0.00972964
0.00786825
0.00621111
0.00467558
0.0032931
0.00192472
0.000701837
0.668522
0.653356
0.61412
0.534617
0.384306
0.122179
-0.229285
-0.73842
-1.01025
-0.956831
-0.80499
-0.721586
-0.647552
-0.629425
-0.66276
-0.725389
-0.77849
-0.791377
-0.747182
-0.644097
-0.499218
-0.34287
-0.204095
-0.0989762
-0.0291839
0.0122343
0.0341541
0.0439421
0.0467033
0.0456348
0.0426222
0.0387407
0.0345919
0.0305048
0.0266509
0.0231112
0.019912
0.0170511
0.0145052
0.0122487
0.0102425
0.00846213
0.00685865
0.00542375
0.0040884
0.00288204
0.00168558
0.000613675
0.56085
0.54329
0.500576
0.423758
0.292815
0.0903705
-0.202176
-0.549375
-0.866097
-1.03298
-1.01742
-0.903896
-0.770468
-0.696396
-0.65179
-0.634512
-0.65364
-0.696747
-0.731277
-0.730585
-0.680742
-0.583135
-0.454326
-0.319484
-0.200988
-0.110414
-0.0484194
-0.00954436
0.0129708
0.0248305
0.0301423
0.0316027
0.0308826
0.0289881
0.0265197
0.0238342
0.021141
0.0185596
0.0161517
0.0139454
0.0119438
0.0101421
0.00851963
0.00706501
0.0057434
0.00455253
0.00343785
0.00242626
0.00142028
0.000516072
0.465726
0.447999
0.406977
0.337526
0.229433
0.0746495
-0.128087
-0.372318
-0.58187
-0.721395
-0.775464
-0.753311
-0.698145
-0.649267
-0.620654
-0.609533
-0.618428
-0.641007
-0.655274
-0.641034
-0.589427
-0.503942
-0.398227
-0.2903
-0.195166
-0.120414
-0.0666401
-0.0304986
-0.00756731
0.00617358
0.0138554
0.01769
0.0191409
0.0191458
0.0183006
0.0169845
0.0154386
0.0138153
0.0122072
0.0106695
0.00922906
0.00790025
0.00667991
0.00556879
0.00454627
0.00361564
0.0027373
0.00193505
0.00113417
0.000411048
0.383425
0.366741
0.329866
0.26927
0.181244
0.0612392
-0.0868494
-0.257304
-0.416288
-0.540003
-0.60592
-0.614904
-0.593821
-0.570663
-0.557334
-0.553544
-0.556793
-0.563616
-0.562759
-0.542131
-0.496331
-0.428285
-0.347275
-0.264803
-0.190396
-0.129326
-0.0827648
-0.0492601
-0.0262637
-0.0111035
-0.0014704
0.00440594
0.00778066
0.00950864
0.0101652
0.0101381
0.00968914
0.00899485
0.00817225
0.00729873
0.00642151
0.00557169
0.00476206
0.00400431
0.00329145
0.0026317
0.0020005
0.00141798
0.00083279
0.000300672
0.313078
0.298046
0.265934
0.214075
0.142062
0.0474161
-0.0649442
-0.189962
-0.311708
-0.410383
-0.471888
-0.496398
-0.497954
-0.492242
-0.487946
-0.486473
-0.486773
-0.485647
-0.477913
-0.457292
-0.420415
-0.36876
-0.307834
-0.244861
-0.186231
-0.135976
-0.0956258
-0.0648631
-0.042356
-0.0264059
-0.0153707
-0.00788362
-0.00290663
0.000311263
0.00230411
0.00345077
0.00402008
0.00420267
0.00413233
0.00390302
0.00357829
0.00320295
0.00280376
0.00240182
0.00200286
0.00161926
0.0012412
0.000884646
0.000521706
0.000187001
0.253395
0.24024
0.212659
0.168765
0.109404
0.0337745
-0.0539685
-0.149341
-0.242533
-0.320763
-0.375799
-0.4069
-0.420293
-0.424341
-0.425102
-0.424888
-0.423972
-0.419889
-0.410454
-0.392411
-0.363394
-0.32394
-0.277454
-0.228695
-0.182028
-0.140464
-0.105524
-0.07751
-0.0558811
-0.0396462
-0.0276926
-0.019003
-0.012747
-0.0082858
-0.00514017
-0.00295384
-0.00146262
-0.000471403
0.000163046
0.000545588
0.00075193
0.000837449
0.000840595
0.000790193
0.000703558
0.000596307
0.00047283
0.000344431
0.000206369
7.20314e-05
0.203025
0.19172
0.168179
0.131238
0.0820319
0.0209143
-0.0489461
-0.123582
-0.196551
-0.26012
-0.308844
-0.341119
-0.359445
-0.368471
-0.37238
-0.373221
-0.372507
-0.368105
-0.359145
-0.343824
-0.320691
-0.290035
-0.253995
-0.215645
-0.177955
-0.143204
-0.112822
-0.0874194
-0.0669244
-0.0508145
-0.0383685
-0.0288553
-0.0216322
-0.0161735
-0.0120641
-0.00898089
-0.0066742
-0.00495288
-0.00367106
-0.00271823
-0.00201061
-0.00148533
-0.0010946
-0.000803598
-0.000584732
-0.000420074
-0.000291809
-0.000193679
-0.000107988
-4.23355e-05
0.160689
0.151064
0.131034
0.0999909
0.0590226
0.00907835
-0.0474165
-0.107195
-0.165917
-0.218586
-0.261213
-0.292031
-0.311928
-0.323552
-0.329755
-0.332661
-0.331663
-0.32771
-0.319839
-0.306996
-0.288383
-0.264158
-0.235633
-0.204831
-0.173853
-0.144467
-0.117942
-0.0949842
-0.0757691
-0.0600766
-0.0474704
-0.0374481
-0.0295301
-0.0232985
-0.0184046
-0.0145649
-0.0115512
-0.00918293
-0.00731689
-0.00584149
-0.00466847
-0.00373036
-0.00297222
-0.00235492
-0.00184195
-0.00141399
-0.00104072
-0.000721237
-0.000416427
-0.000154322
0.125222
0.117055
0.100031
0.0738933
0.0396148
-0.00166132
-0.0480239
-0.0968998
-0.145176
-0.189364
-0.226486
-0.254945
-0.274873
-0.287704
-0.295225
-0.29875
-0.298877
-0.295849
-0.289311
-0.278695
-0.263563
-0.244023
-0.220933
-0.195686
-0.169811
-0.144691
-0.121409
-0.100667
-0.0827609
-0.0676599
-0.0551294
-0.0448425
-0.0364551
-0.0296451
-0.0241288
-0.0196642
-0.016049
-0.013117
-0.0107322
-0.00878545
-0.007187
-0.00586723
-0.00476611
-0.0038417
-0.00304994
-0.00237091
-0.00176288
-0.00123044
-0.000714368
-0.000262289
0.0956104
0.0886731
0.0741838
0.0520808
0.0232204
-0.0112721
-0.049848
-0.0904894
-0.130843
-0.168355
-0.200775
-0.226718
-0.24593
-0.259112
-0.267362
-0.271604
-0.272621
-0.270568
-0.265327
-0.256588
-0.244122
-0.228045
-0.208967
-0.187881
-0.165932
-0.144214
-0.123643
-0.104864
-0.0882228
-0.0738011
-0.0615025
-0.0511315
-0.0424524
-0.0352261
-0.029228
-0.0242572
-0.0201386
-0.0167233
-0.0138848
-0.0115192
-0.00953755
-0.00787019
-0.00645367
-0.00524456
-0.00419255
-0.0032778
-0.00244831
-0.00171418
-0.000997631
-0.000364754
0.0709865
0.0650693
0.0526903
0.0338822
0.00939672
-0.0197447
-0.0522628
-0.0865565
-0.120793
-0.153033
-0.181524
-0.205067
-0.223228
-0.236291
-0.244941
-0.249933
-0.251581
-0.25039
-0.246273
-0.239058
-0.228651
-0.215182
-0.199114
-0.18119
-0.162294
-0.143304
-0.124987
-0.107918
-0.0924498
-0.0787297
-0.0667539
-0.056423
-0.0475861
-0.0400728
-0.0337107
-0.0283373
-0.0238042
-0.0199806
-0.0167512
-0.0140187
-0.0116971
-0.00971785
-0.00801573
-0.0065468
-0.00525567
-0.00412315
-0.00308812
-0.00216613
-0.00126247
-0.000460394
0.0506264
0.0455447
0.0349018
0.018768
-0.00219788
-0.0271006
-0.0548714
-0.0842199
-0.113686
-0.14174
-0.166977
-0.188357
-0.205383
-0.218106
-0.226922
-0.232339
-0.234648
-0.234203
-0.231015
-0.225021
-0.21621
-0.204728
-0.190952
-0.175463
-0.158963
-0.142165
-0.125711
-0.110107
-0.095692
-0.0826504
-0.0710389
-0.0608265
-0.0519275
-0.0442268
-0.0375967
-0.0319088
-0.0270396
-0.0228762
-0.0193148
-0.016266
-0.0136474
-0.0113929
-0.00943633
-0.00773426
-0.00622719
-0.00489699
-0.00367458
-0.00258073
-0.00150558
-0.000548058
0.0339327
0.0295279
0.0202959
0.00631593
-0.0118352
-0.033383
-0.057427
-0.0829071
-0.108632
-0.133358
-0.155928
-0.175442
-0.191396
-0.2037
-0.212547
-0.218256
-0.221065
-0.221215
-0.218768
-0.213733
-0.20616
-0.196207
-0.184195
-0.170599
-0.155987
-0.140947
-0.126019
-0.111648
-0.0981547
-0.085739
-0.0744969
-0.0644457
-0.0555485
-0.0477343
-0.040912
-0.0349829
-0.0298457
-0.0254039
-0.0215654
-0.0182483
-0.0153747
-0.0128815
-0.0107025
-0.00879521
-0.00709692
-0.00559084
-0.00420104
-0.0029532
-0.00172413
-0.000626755
0.0204196
0.0165557
0.00845352
-0.00381154
-0.0197341
-0.0386441
-0.0597744
-0.0822358
-0.105033
-0.127128
-0.147549
-0.165511
-0.180522
-0.192403
-0.201203
-0.207097
-0.210257
-0.210854
-0.208978
-0.204687
-0.19807
-0.189296
-0.178649
-0.166526
-0.153397
-0.139756
-0.126064
-0.112712
-0.100003
-0.0881419
-0.0772484
-0.0673738
-0.0585172
-0.0506416
-0.0436857
-0.0375751
-0.0322279
-0.0275623
-0.0234966
-0.0199566
-0.0168686
-0.0141729
-0.0118039
-0.00972006
-0.00785643
-0.00619759
-0.00466193
-0.00327949
-0.00191569
-0.000695653
0.00969765
0.00625774
-0.000958013
-0.0118824
-0.02607
-0.0429359
-0.0618169
-0.0819499
-0.102483
-0.122531
-0.141258
-0.157971
-0.172195
-0.18369
-0.192402
-0.198398
-0.201789
-0.202709
-0.201258
-0.197533
-0.191649
-0.183779
-0.17418
-0.163192
-0.151215
-0.13867
-0.125958
-0.11343
-0.101368
-0.089978
-0.0793944
-0.0696915
-0.0608946
-0.0529922
-0.0459463
-0.0397022
-0.0341942
-0.0293528
-0.0251056
-0.021385
-0.0181218
-0.0152592
-0.0127323
-0.0105012
-0.00849888
-0.00671147
-0.00505265
-0.00355626
-0.00207827
-0.000754062
0.00146086
-0.00165686
-0.00819867
-0.0181061
-0.0309815
-0.0463064
-0.0634956
-0.0818783
-0.100707
-0.119206
-0.136642
-0.15239
-0.16599
-0.177158
-0.185767
-0.191807
-0.195343
-0.196483
-0.19534
-0.192033
-0.186697
-0.179506
-0.170694
-0.160561
-0.149455
-0.137745
-0.125787
-0.1139
-0.10235
-0.0913413
-0.0810168
-0.0714661
-0.0627328
-0.0548242
-0.0477201
-0.0413809
-0.0357535
-0.0307787
-0.0263915
-0.0225302
-0.0191291
-0.0161342
-0.0134816
-0.0111326
-0.0090189
-0.00712783
-0.0053695
-0.0037808
-0.00221026
-0.000801419
-0.00452362
-0.0074094
-0.0134657
-0.0226417
-0.0345754
-0.0487964
-0.0647757
-0.0819071
-0.0995158
-0.116904
-0.133409
-0.148454
-0.16159
-0.172506
-0.181018
-0.187068
-0.190688
-0.191971
-0.191039
-0.188027
-0.183082
-0.176376
-0.168127
-0.158607
-0.148127
-0.13702
-0.12561
-0.114194
-0.103025
-0.0923039
-0.0821794
-0.0727508
-0.064074
-0.0561696
-0.0490296
-0.0426258
-0.0369144
-0.0318437
-0.0273547
-0.0233899
-0.0198869
-0.0167937
-0.0140473
-0.0116098
-0.00941236
-0.00744312
-0.00560962
-0.00395099
-0.00231036
-0.000837254
-0.00842343
-0.0111597
-0.0169014
-0.025604
-0.0369294
-0.0504384
-0.0656378
-0.0819627
-0.0987848
-0.115456
-0.131358
-0.145945
-0.158775
-0.169517
-0.177957
-0.184003
-0.187666
-0.189033
-0.188232
-0.185409
-0.180715
-0.174322
-0.166437
-0.157313
-0.147239
-0.136523
-0.12547
-0.114363
-0.103446
-0.0929176
-0.0829291
-0.0735855
-0.0649505
-0.0570529
-0.0498927
-0.043449
-0.0376841
-0.0325515
-0.0279961
-0.0239635
-0.0203933
-0.017235
-0.0144261
-0.0119297
-0.00967637
-0.00765479
-0.00577094
-0.00406527
-0.00237775
-0.000861029
-0.010344
-0.0130092
-0.0185964
-0.027066
-0.0380933
-0.0512537
-0.0660711
-0.0820009
-0.0984376
-0.114757
-0.130363
-0.144724
-0.157402
-0.168057
-0.176459
-0.182499
-0.18618
-0.187585
-0.186848
-0.184116
-0.179545
-0.173305
-0.165599
-0.156669
-0.146794
-0.13627
-0.125394
-0.11444
-0.103648
-0.093216
-0.0832962
-0.0739961
-0.0653831
-0.05749
-0.0503209
-0.0438581
-0.0380673
-0.0329044
-0.0283163
-0.0242502
-0.0206466
-0.0174558
-0.014616
-0.01209
-0.0098089
-0.00776079
-0.00585222
-0.00412213
-0.00241232
-0.00087168
-0.010345
-0.0130066
-0.0185945
-0.0270655
-0.0380926
-0.0512524
-0.0660698
-0.0819999
-0.098437
-0.114757
-0.130363
-0.144725
-0.157403
-0.168058
-0.17646
-0.182501
-0.186181
-0.187586
-0.186849
-0.184117
-0.179546
-0.173306
-0.165599
-0.156669
-0.146794
-0.13627
-0.125394
-0.114441
-0.10365
-0.093218
-0.0832982
-0.073998
-0.0653845
-0.0574908
-0.0503211
-0.0438581
-0.0380673
-0.0329047
-0.028317
-0.0242513
-0.0206477
-0.0174569
-0.0146166
-0.0120906
-0.00980877
-0.00776101
-0.0058514
-0.00412272
-0.0024108
-0.000873799
-0.00842436
-0.011157
-0.0168995
-0.0256034
-0.0369287
-0.0504372
-0.0656365
-0.0819618
-0.0987844
-0.115456
-0.131359
-0.145946
-0.158776
-0.169519
-0.177959
-0.184005
-0.187667
-0.189034
-0.188233
-0.18541
-0.180716
-0.174323
-0.166438
-0.157313
-0.147239
-0.136523
-0.125471
-0.114364
-0.103447
-0.0929191
-0.0829308
-0.0735872
-0.0649519
-0.0570538
-0.0498932
-0.0434491
-0.0376842
-0.0325518
-0.0279967
-0.0239645
-0.0203943
-0.017236
-0.0144267
-0.0119303
-0.0096763
-0.00765506
-0.00577021
-0.00406587
-0.0023763
-0.000863083
-0.00452453
-0.00740651
-0.0134636
-0.022641
-0.0345746
-0.0487952
-0.0647746
-0.0819065
-0.099516
-0.116905
-0.133411
-0.148456
-0.161592
-0.172507
-0.181019
-0.18707
-0.190689
-0.191972
-0.19104
-0.188028
-0.183082
-0.176376
-0.168128
-0.158607
-0.148128
-0.13702
-0.12561
-0.114194
-0.103025
-0.0923046
-0.0821804
-0.0727521
-0.0640754
-0.0561709
-0.0490306
-0.0426265
-0.0369148
-0.0318441
-0.0273552
-0.0233907
-0.0198878
-0.0167947
-0.014048
-0.0116105
-0.00941241
-0.00744351
-0.00560903
-0.00395165
-0.00230899
-0.000839261
0.00145995
-0.00165365
-0.00819631
-0.0181053
-0.0309806
-0.0463052
-0.0634948
-0.0818785
-0.100708
-0.119208
-0.136645
-0.152393
-0.165992
-0.17716
-0.185768
-0.191808
-0.195344
-0.196484
-0.195341
-0.192034
-0.186698
-0.179506
-0.170694
-0.160561
-0.149456
-0.137745
-0.125787
-0.1139
-0.10235
-0.0913412
-0.081017
-0.0714668
-0.0627339
-0.0548257
-0.0477216
-0.0413821
-0.0357544
-0.0307792
-0.026392
-0.0225307
-0.0191298
-0.0161351
-0.0134824
-0.0111333
-0.00901911
-0.00712837
-0.00536908
-0.00378154
-0.00220902
-0.000803375
0.00969677
0.00626144
-0.000955223
-0.0118814
-0.026069
-0.0429349
-0.0618167
-0.0819511
-0.102485
-0.122534
-0.141261
-0.157974
-0.172197
-0.183691
-0.192402
-0.198398
-0.20179
-0.202709
-0.201259
-0.197534
-0.19165
-0.18378
-0.174181
-0.163192
-0.151216
-0.13867
-0.125958
-0.11343
-0.101368
-0.0899774
-0.079394
-0.0696916
-0.0608954
-0.0529936
-0.045948
-0.0397039
-0.0341954
-0.0293536
-0.0251061
-0.0213855
-0.0181224
-0.01526
-0.0127331
-0.010502
-0.00849925
-0.00671214
-0.00505237
-0.00355705
-0.00207716
-0.00075593
0.0204188
0.01656
0.00845684
-0.00381024
-0.019733
-0.0386433
-0.059775
-0.0822381
-0.105036
-0.127132
-0.147553
-0.165513
-0.180523
-0.192403
-0.201202
-0.207097
-0.210257
-0.210856
-0.20898
-0.204689
-0.198072
-0.189297
-0.17865
-0.166526
-0.153398
-0.139756
-0.126064
-0.112713
-0.100003
-0.0881414
-0.0772477
-0.0673734
-0.0585175
-0.0506427
-0.0436874
-0.037577
-0.0322295
-0.0275634
-0.0234973
-0.0199571
-0.0168691
-0.0141737
-0.0118047
-0.009721
-0.00785692
-0.00619836
-0.00466178
-0.00328028
-0.00191469
-0.000697393
0.0339318
0.0295328
0.0202998
0.00631745
-0.0118342
-0.0333826
-0.0574284
-0.0829107
-0.108637
-0.133364
-0.155933
-0.175445
-0.191397
-0.2037
-0.212546
-0.218255
-0.221066
-0.221217
-0.21877
-0.213736
-0.206162
-0.196208
-0.184196
-0.170599
-0.155987
-0.140947
-0.12602
-0.111648
-0.098155
-0.085739
-0.0744965
-0.0644451
-0.0555483
-0.0477348
-0.0409134
-0.0349847
-0.0298475
-0.0254053
-0.0215663
-0.0182489
-0.0153752
-0.0128822
-0.0107033
-0.00879618
-0.00709751
-0.00559166
-0.00420099
-0.00295395
-0.00172323
-0.000628342
0.0506253
0.0455504
0.0349065
0.0187697
-0.00219683
-0.0271005
-0.0548738
-0.084225
-0.113693
-0.141748
-0.166984
-0.188361
-0.205384
-0.218106
-0.226921
-0.232336
-0.23465
-0.234206
-0.231019
-0.225024
-0.216212
-0.20473
-0.190952
-0.175463
-0.158963
-0.142165
-0.125711
-0.110107
-0.0956926
-0.082651
-0.0710391
-0.0608262
-0.0519271
-0.0442268
-0.0375974
-0.0319102
-0.0270414
-0.0228777
-0.019316
-0.0162667
-0.0136479
-0.0113936
-0.00943715
-0.00773525
-0.00622786
-0.00489784
-0.00367461
-0.00258144
-0.00150482
-0.000549477
0.0709853
0.0650757
0.052696
0.0338842
0.00939803
-0.0197449
-0.0522665
-0.0865638
-0.120803
-0.153044
-0.181533
-0.205072
-0.223228
-0.23629
-0.244938