/*--------------------------------*- C++ -*----------------------------------*\
  =========                 |
  \\      /  F ield         | OpenFOAM: The Open Source CFD Toolbox
   \\    /   O peration     | Website:  https://openfoam.org
    \\  /    A nd           | Version:  8
     \\/     M anipulation  |
\*---------------------------------------------------------------------------*/
FoamFile
{
    version     2.0;
    format      ascii;
    class       volScalarField;
    location    "22";
    object      p;
}
// * * * * * * * * * * * * * * * * * * * * * * * * * * * * * * * * * * * * * //

dimensions      [0 2 -2 0 0 0 0];

internalField   nonuniform List<scalar> 
11600
(
-2.90711e-08
-2.20472e-07
2.01812e-07
9.21823e-07
2.07316e-06
3.62671e-06
5.58282e-06
7.94252e-06
1.07067e-05
1.38768e-05
1.74542e-05
2.14405e-05
2.58376e-05
3.06472e-05
3.58714e-05
4.15122e-05
4.75718e-05
5.40523e-05
6.0956e-05
6.82852e-05
7.60422e-05
8.42294e-05
9.28491e-05
0.000101904
0.000111395
0.000121327
0.0001317
0.000142517
0.000153779
0.00016549
0.000177651
0.000190264
0.00020333
0.000216851
0.000230828
0.000245262
0.000260154
0.000275505
0.000291316
0.000307587
0.000324318
0.00034151
0.000359162
0.000377277
0.000395854
0.000414895
0.000434401
0.000454376
0.000474825
0.000495753
0.000517169
0.000539088
0.000561526
0.000584505
0.000608055
0.000632247
0.000657201
0.000681653
0.000712866
0.000727857
2.67153e-07
4.45768e-08
5.10095e-07
1.24592e-06
2.40538e-06
3.96124e-06
5.91654e-06
8.27417e-06
1.10356e-05
1.42024e-05
1.7776e-05
2.17582e-05
2.61508e-05
3.09556e-05
3.61747e-05
4.18099e-05
4.78636e-05
5.43378e-05
6.12349e-05
6.85571e-05
7.63069e-05
8.44864e-05
9.30982e-05
0.000102145
0.000111628
0.00012155
0.000131914
0.000142722
0.000153975
0.000165676
0.000177827
0.000190429
0.000203485
0.000216995
0.000230961
0.000245385
0.000260266
0.000275607
0.000291407
0.000307667
0.000324388
0.00034157
0.000359213
0.000377319
0.000395888
0.000414922
0.000434423
0.000454394
0.000474842
0.000495774
0.000517201
0.000539141
0.00056162
0.000584674
0.000608363
0.000632811
0.00065814
0.000684242
0.000714378
0.000739967
-9.812e-08
-3.8655e-07
7.10559e-08
7.95309e-07
1.94954e-06
3.50148e-06
5.45329e-06
7.80755e-06
1.05655e-05
1.37285e-05
1.72981e-05
2.1276e-05
2.56639e-05
3.04638e-05
3.56776e-05
4.13074e-05
4.73553e-05
5.38235e-05
6.07144e-05
6.80303e-05
7.57735e-05
8.39464e-05
9.25514e-05
0.000101591
0.000111067
0.000120982
0.000131339
0.00014214
0.000153386
0.00016508
0.000177224
0.00018982
0.000202869
0.000216373
0.000230333
0.00024475
0.000259626
0.000274961
0.000290756
0.000307011
0.000323727
0.000340904
0.000358542
0.000376643
0.000395206
0.000414233
0.000433727
0.000453689
0.000474125
0.00049504
0.000516445
0.000538352
0.000560781
0.000583757
0.000607321
0.00063154
0.000656467
0.000682152
0.000709924
0.000735626
-7.97125e-07
-1.11164e-06
-6.53341e-07
6.56144e-08
1.21703e-06
2.76563e-06
4.71343e-06
7.0631e-06
9.81594e-06
1.29733e-05
1.65368e-05
2.05081e-05
2.48889e-05
2.96812e-05
3.4887e-05
4.05084e-05
4.65475e-05
5.30067e-05
5.98881e-05
6.71943e-05
7.49275e-05
8.30902e-05
9.16848e-05
0.000100714
0.000110179
0.000120084
0.00013043
0.00014122
0.000152456
0.000164139
0.000176273
0.000188858
0.000201898
0.000215392
0.000229343
0.000243751
0.000258618
0.000273945
0.000289732
0.00030598
0.000322688
0.000339858
0.000357489
0.000375582
0.000394137
0.000413156
0.000432639
0.000452588
0.000473008
0.000493903
0.00051528
0.000537152
0.000559534
0.000582449
0.00060593
0.000630027
0.000654784
0.000680289
0.000706866
0.000733155
-1.95653e-06
-2.28567e-06
-1.83021e-06
-1.11812e-06
2.82736e-08
1.57174e-06
3.51412e-06
5.85796e-06
8.60446e-06
1.1755e-05
1.5311e-05
1.92743e-05
2.36467e-05
2.843e-05
3.36263e-05
3.92377e-05
4.52665e-05
5.17149e-05
5.85853e-05
6.58801e-05
7.36017e-05
8.17527e-05
9.03354e-05
9.93523e-05
0.000108806
0.000118699
0.000129033
0.000139811
0.000151035
0.000162707
0.00017483
0.000187405
0.000200433
0.000213918
0.000227859
0.000242259
0.000257118
0.000272437
0.000288217
0.000304458
0.000321159
0.000338323
0.000355947
0.000374033
0.000392581
0.000411589
0.000431059
0.000450993
0.00047139
0.000492254
0.00051359
0.000535402
0.000557698
0.000580489
0.000603789
0.000627612
0.000651966
0.000676866
0.000702322
0.000727816
-3.54264e-06
-3.87955e-06
-3.42706e-06
-2.72099e-06
-1.57997e-06
-4.23648e-08
1.89365e-06
4.23053e-06
6.96944e-06
1.01117e-05
1.36588e-05
1.76125e-05
2.19747e-05
2.67471e-05
3.19321e-05
3.75316e-05
4.3548e-05
4.99836e-05
5.68408e-05
6.41222e-05
7.18301e-05
7.99671e-05
8.85358e-05
9.75386e-05
0.000106978
0.000116857
0.000127177
0.000137942
0.000149152
0.000160812
0.000172922
0.000185485
0.000198502
0.000211976
0.000225907
0.000240298
0.000255148
0.000270459
0.000286231
0.000302465
0.000319161
0.000336318
0.000353937
0.000372016
0.000390555
0.000409554
0.000429012
0.000448927
0.0004693
0.000490131
0.000511419
0.000533166
0.000555371
0.000578036
0.000601158
0.000624732
0.000648738
0.000673145
0.000697868
0.000722655
-5.55226e-06
-5.89367e-06
-5.44424e-06
-4.74365e-06
-3.60835e-06
-2.07727e-06
-1.48533e-07
2.18031e-06
4.91039e-06
8.04301e-06
1.15797e-05
1.55223e-05
1.98725e-05
2.46324e-05
2.9804e-05
3.53897e-05
4.13917e-05
4.78124e-05
5.46544e-05
6.19201e-05
6.96121e-05
7.77331e-05
8.62855e-05
9.52722e-05
0.000104696
0.000114558
0.000124863
0.000135612
0.000146807
0.000158452
0.000170548
0.000183098
0.000196103
0.000209565
0.000223485
0.000237866
0.000252707
0.00026801
0.000283776
0.000300004
0.000316694
0.000333846
0.000351459
0.000369532
0.000388065
0.000407055
0.0004265
0.000446399
0.000466748
0.000487545
0.000508786
0.000530466
0.00055258
0.000575118
0.000598066
0.000621402
0.000645091
0.000669074
0.000693253
0.000717446
-7.98338e-06
-8.32834e-06
-7.88221e-06
-7.18701e-06
-6.05783e-06
-4.53394e-06
-2.61336e-06
-2.93625e-07
2.4264e-06
5.54802e-06
9.07284e-06
1.30026e-05
1.73392e-05
2.20846e-05
2.72411e-05
3.28109e-05
3.87964e-05
4.52002e-05
5.20247e-05
5.92725e-05
6.69465e-05
7.50491e-05
8.35832e-05
9.25514e-05
0.000101956
0.000111801
0.000122088
0.000132819
0.000143998
0.000155627
0.000167708
0.000180243
0.000193234
0.000206683
0.000220592
0.000234962
0.000249795
0.00026509
0.000280848
0.00029707
0.000313756
0.000330904
0.000348513
0.000366583
0.00038511
0.000404094
0.00042353
0.000443415
0.000463744
0.000484511
0.00050571
0.000527332
0.000549364
0.00057179
0.000594589
0.000617728
0.000641161
0.000664822
0.000688613
0.000712393
-1.0834e-05
-1.11824e-05
-1.07398e-05
-1.00502e-05
-8.92759e-06
-7.41157e-06
-5.50004e-06
-3.1905e-06
-4.81781e-07
2.62746e-06
6.13884e-06
1.00541e-05
1.43753e-05
1.91045e-05
2.42438e-05
2.97957e-05
3.57626e-05
4.21472e-05
4.8952e-05
5.61797e-05
6.38332e-05
7.19152e-05
8.04285e-05
8.93761e-05
9.87606e-05
0.000108585
0.000118852
0.000129564
0.000140724
0.000152335
0.000164399
0.000176918
0.000189894
0.00020333
0.000217226
0.000231586
0.000246408
0.000261696
0.000277448
0.000293665
0.000310347
0.000327492
0.0003451
0.000363168
0.000381694
0.000400675
0.000420106
0.000439982
0.000460297
0.000481043
0.00050221
0.000523786
0.000545754
0.000568093
0.000590776
0.000613765
0.000637011
0.000660448
0.000683984
0.000707505
-1.41025e-05
-1.44544e-05
-1.40156e-05
-1.33319e-05
-1.22165e-05
-1.07091e-05
-8.80758e-06
-6.50934e-06
-3.8132e-06
-7.17772e-07
2.77861e-06
6.67777e-06
1.09817e-05
1.56926e-05
2.08128e-05
2.63447e-05
3.22908e-05
3.86538e-05
4.54365e-05
5.26417e-05
6.02723e-05
6.83313e-05
7.68215e-05
8.57459e-05
9.51075e-05
0.000104909
0.000115154
0.000125845
0.000136984
0.000148575
0.00016062
0.000173121
0.000186081
0.000199502
0.000213386
0.000227734
0.000242547
0.000257827
0.000273573
0.000289786
0.000306466
0.000323611
0.000341219
0.000359289
0.000377818
0.0003968
0.000416232
0.000436107
0.000456417
0.000477152
0.0004983
0.000519847
0.000541773
0.000564054
0.00058666
0.000609551
0.000632678
0.000655976
0.000679367
0.000702755
-1.77873e-05
-1.8143e-05
-1.77082e-05
-1.7031e-05
-1.59234e-05
-1.44255e-05
-1.25349e-05
-1.02491e-05
-7.5669e-06
-4.48675e-06
-1.00699e-06
2.87427e-06
7.15912e-06
1.18498e-05
1.69486e-05
2.24582e-05
2.83812e-05
3.47204e-05
4.14786e-05
4.86587e-05
5.62639e-05
6.42972e-05
7.27617e-05
8.16604e-05
9.09966e-05
0.000100773
0.000110994
0.00012166
0.000132777
0.000144346
0.00015637
0.000168852
0.000181795
0.0001952
0.000209069
0.000223405
0.000238209
0.000253481
0.000269222
0.000285432
0.000302111
0.000319258
0.00033687
0.000354946
0.000373481
0.000392471
0.000411911
0.000431793
0.000452108
0.000472845
0.000493991
0.000515529
0.000537438
0.000559693
0.000582262
0.000605106
0.000628176
0.000651415
0.000674751
0.000698106
-2.18869e-05
-2.22467e-05
-2.18164e-05
-2.11461e-05
-2.0047e-05
-1.85594e-05
-1.66808e-05
-1.44087e-05
-1.17418e-05
-8.67843e-06
-5.21698e-06
-1.35544e-06
2.90834e-06
7.57667e-06
1.2652e-05
1.8137e-05
2.40345e-05
3.03472e-05
3.70783e-05
4.42308e-05
5.18079e-05
5.98128e-05
6.82488e-05
7.71192e-05
8.64272e-05
9.61762e-05
0.000106369
0.00011701
0.000128101
0.000139646
0.000151648
0.000164109
0.000177032
0.00019042
0.000204274
0.000218597
0.000233391
0.000248655
0.000264392
0.0002806
0.00029728
0.000314431
0.00033205
0.000350136
0.000368683
0.000387687
0.000407143
0.000427042
0.000447374
0.000468128
0.000489289
0.00051084
0.000532759
0.00055502
0.000577592
0.000600437
0.000623509
0.000646755
0.000670115
0.000693519
-2.63996e-05
-2.67639e-05
-2.63384e-05
-2.56756e-05
-2.45858e-05
-2.31094e-05
-2.1244e-05
-1.89868e-05
-1.63365e-05
-1.32916e-05
-9.85025e-06
-6.01034e-06
-1.76967e-06
2.87414e-06
7.92368e-06
1.33817e-05
1.92511e-05
2.55348e-05
3.22361e-05
3.93581e-05
4.69043e-05
5.4878e-05
6.32826e-05
7.21217e-05
8.13987e-05
9.11172e-05
0.000101281
0.000111892
0.000122956
0.000134474
0.000146451
0.000158889
0.000171791
0.00018516
0.000198998
0.000213307
0.00022809
0.000243347
0.000259079
0.000275287
0.00029197
0.000309128
0.000326757
0.000344857
0.000363421
0.000382447
0.000401927
0.000421853
0.000442215
0.000463001
0.000484196
0.000505782
0.000527738
0.000550038
0.000572651
0.000595542
0.000618669
0.000641983
0.00066543
0.000688952
-3.13237e-05
-3.16928e-05
-3.12725e-05
-3.0618e-05
-2.95382e-05
-2.8074e-05
-2.62228e-05
-2.39819e-05
-2.13499e-05
-1.83251e-05
-1.49056e-05
-1.10893e-05
-6.87389e-06
-2.25687e-06
2.76444e-06
8.1929e-06
1.40315e-05
2.02835e-05
2.69521e-05
3.40408e-05
4.1553e-05
4.94924e-05
5.78626e-05
6.66673e-05
7.59103e-05
8.55952e-05
9.57257e-05
0.000106306
0.000117338
0.000128828
0.000140777
0.000153189
0.000166068
0.000179417
0.000193237
0.000207532
0.000222303
0.000237553
0.000253281
0.000269489
0.000286177
0.000303343
0.000320987
0.000339105
0.000357693
0.000376747
0.00039626
0.000416224
0.000436628
0.000457462
0.00047871
0.000500353
0.000522373
0.000544742
0.000567434
0.000590413
0.000613641
0.000637075
0.000660667
0.000684365
-3.66573e-05
-3.70317e-05
-3.6617e-05
-3.59713e-05
-3.49024e-05
-3.34514e-05
-3.16157e-05
-2.93925e-05
-2.67803e-05
-2.37773e-05
-2.03816e-05
-1.6591e-05
-1.24032e-05
-7.81533e-06
-2.82479e-06
2.57145e-06
8.37656e-06
1.45938e-05
2.12268e-05
2.8279e-05
3.57541e-05
4.3656e-05
5.19885e-05
6.07556e-05
6.99611e-05
7.96091e-05
8.97035e-05
0.000100248
0.000111247
0.000122705
0.000134624
0.000147008
0.000159862
0.000173187
0.000186988
0.000201267
0.000216026
0.000231267
0.000246992
0.000263201
0.000279895
0.000297073
0.000314734
0.000332874
0.000351492
0.000370581
0.000390136
0.000410149
0.000430609
0.000451506
0.000472825
0.000494548
0.000516656
0.000539125
0.000561928
0.000585034
0.000608406
0.000632007
0.000655792
0.000679717
-4.23983e-05
-4.27784e-05
-4.23698e-05
-4.17337e-05
-4.06765e-05
-3.92398e-05
-3.74209e-05
-3.52168e-05
-3.2626e-05
-2.96467e-05
-2.62769e-05
-2.25142e-05
-1.83562e-05
-1.38001e-05
-8.84298e-06
-3.48177e-06
2.28687e-06
8.46641e-06
1.50605e-05
2.20729e-05
2.95076e-05
3.73686e-05
4.56599e-05
5.43857e-05
6.35503e-05
7.31578e-05
8.32126e-05
9.37189e-05
0.000104681
0.000116103
0.000127988
0.000140342
0.000153167
0.000166468
0.000180247
0.000194508
0.000209254
0.000224486
0.000240207
0.000256418
0.000273119
0.000290311
0.000307992
0.00032616
0.000344811
0.000363943
0.000383549
0.00040362
0.00042415
0.000445125
0.000466532
0.000488356
0.000510577
0.000533173
0.000556119
0.000579386
0.000602941
0.000626749
0.000650772
0.000674968
-4.85446e-05
-4.89308e-05
-4.85287e-05
-4.79029e-05
-4.68584e-05
-4.54371e-05
-4.36363e-05
-4.14528e-05
-3.88852e-05
-3.59316e-05
-3.25897e-05
-2.88573e-05
-2.47316e-05
-2.02098e-05
-1.5289e-05
-9.96578e-06
-4.23672e-06
1.90184e-06
8.45372e-06
1.54229e-05
2.28136e-05
3.06299e-05
3.88763e-05
4.75571e-05
5.66769e-05
6.62402e-05
7.62515e-05
8.67154e-05
9.76365e-05
0.000109019
0.000120868
0.000133188
0.000145982
0.000159255
0.00017301
0.000187251
0.000201982
0.000217204
0.000232921
0.000249133
0.000265843
0.000283049
0.000300753
0.000318952
0.000337643
0.000356824
0.000376488
0.000396629
0.000417239
0.000438307
0.00045982
0.000481763
0.00050412
0.000526868
0.000549986
0.000573446
0.000597219
0.000621272
0.000645571
0.000670078
-5.50937e-05
-5.54865e-05
-5.50914e-05
-5.44766e-05
-5.34458e-05
-5.20411e-05
-5.02597e-05
-4.80986e-05
-4.5556e-05
-4.263e-05
-3.93183e-05
-3.56185e-05
-3.15278e-05
-2.70432e-05
-2.21616e-05
-1.68795e-05
-1.11933e-05
-5.09912e-06
1.40699e-06
8.32927e-06
1.56721e-05
2.34399e-05
3.16373e-05
4.0269e-05
4.93399e-05
5.88547e-05
6.88185e-05
7.92359e-05
9.01122e-05
0.000101452
0.00011326
0.000125542
0.000138301
0.000151543
0.000165271
0.00017949
0.000194203
0.000209414
0.000225125
0.000241339
0.000258057
0.00027528
0.000293009
0.000311242
0.000329977
0.000349213
0.000368943
0.000389163
0.000409864
0.000431038
0.000452672
0.000474754
0.000497266
0.000520191
0.000543507
0.000567189
0.000591211
0.000615543
0.000640154
0.000665008
-6.20432e-05
-6.24429e-05
-6.20553e-05
-6.14524e-05
-6.04362e-05
-5.90494e-05
-5.72889e-05
-5.51518e-05
-5.26361e-05
-4.97398e-05
-4.64607e-05
-4.2796e-05
-3.8743e-05
-3.42986e-05
-2.94593e-05
-2.42216e-05
-1.85817e-05
-1.25356e-05
-6.07904e-06
7.92389e-07
8.08328e-06
1.57984e-05
2.39426e-05
3.25209e-05
4.15384e-05
5.10003e-05
6.09118e-05
7.12784e-05
8.21052e-05
9.33976e-05
0.000105161
0.0001174
0.000130121
0.000143328
0.000157026
0.000171219
0.000185913
0.000201109
0.000216813
0.000233027
0.000249754
0.000266994
0.000284749
0.000303019
0.000321802
0.000341098
0.000360901
0.000381208
0.000402011
0.000423302
0.000445072
0.000467308
0.000489996
0.000513118
0.000536655
0.000560586
0.000584885
0.000609527
0.000634481
0.000659717
-6.93903e-05
-6.97973e-05
-6.94178e-05
-6.88276e-05
-6.7827e-05
-6.64593e-05
-6.47213e-05
-6.26099e-05
-6.01231e-05
-5.72588e-05
-5.40147e-05
-5.03879e-05
-4.63755e-05
-4.19742e-05
-3.71805e-05
-3.19908e-05
-2.64009e-05
-2.04066e-05
-1.40036e-05
-7.18722e-06
4.74498e-08
7.70539e-06
1.57918e-05
2.43119e-05
3.32713e-05
4.26754e-05
5.25299e-05
6.28406e-05
7.36131e-05
8.48533e-05
9.65669e-05
0.00010876
0.000121437
0.000134605
0.000148269
0.000162433
0.000177103
0.000192283
0.000207977
0.00022419
0.000240923
0.00025818
0.000275963
0.000294271
0.000313106
0.000332465
0.000352347
0.000372747
0.000393661
0.000415081
0.000436999
0.000459404
0.000482284
0.000505622
0.000529403
0.000553605
0.000578209
0.000603188
0.000628517
0.000654168
-7.71319e-05
-7.75468e-05
-7.71758e-05
-7.65991e-05
-7.56154e-05
-7.42681e-05
-7.25542e-05
-7.04703e-05
-6.80145e-05
-6.51846e-05
-6.1978e-05
-5.83918e-05
-5.4423e-05
-5.00682e-05
-4.53236e-05
-4.01854e-05
-3.46494e-05
-2.87111e-05
-2.23659e-05
-1.5609e-05
-8.43511e-06
-8.39094e-07
7.18457e-06
1.56415e-05
2.45376e-05
3.38787e-05
4.36709e-05
5.39203e-05
6.46333e-05
7.58159e-05
8.74745e-05
9.96154e-05
0.000112245
0.000125369
0.000138993
0.000153124
0.000167766
0.000182926
0.000198608
0.000214816
0.000231555
0.000248828
0.000266638
0.000284985
0.000303873
0.000323299
0.000343264
0.000363764
0.000384796
0.000406354
0.000428431
0.000451018
0.000474104
0.000497676
0.000521719
0.000546215
0.000571145
0.000596487
0.000622217
0.000648309
-8.5265e-05
-8.56881e-05
-8.53263e-05
-8.4764e-05
-8.37981e-05
-8.24726e-05
-8.07845e-05
-7.873e-05
-7.63074e-05
-7.35143e-05
-7.03479e-05
-6.68054e-05
-6.28834e-05
-5.85784e-05
-5.38866e-05
-4.88038e-05
-4.33258e-05
-3.74477e-05
-3.11649e-05
-2.44721e-05
-1.7364e-05
-9.83495e-06
-1.87924e-06
6.50915e-06
1.53364e-05
2.46089e-05
3.4333e-05
4.45154e-05
5.51629e-05
6.62821e-05
7.78799e-05
8.99631e-05
0.000102539
0.000115613
0.000129193
0.000143285
0.000157896
0.000173031
0.000188696
0.000204897
0.000221639
0.000238926
0.000256761
0.000275147
0.000294088
0.000313583
0.000333634
0.000354238
0.000375394
0.000397097
0.000419342
0.000442122
0.000465428
0.000489249
0.000513571
0.000538379
0.000563657
0.000589384
0.000615539
0.000642098
-9.37861e-05
-9.42178e-05
-9.38657e-05
-9.33188e-05
-9.23719e-05
-9.10698e-05
-8.9409e-05
-8.73861e-05
-8.49989e-05
-8.22451e-05
-7.91218e-05
-7.5626e-05
-7.17541e-05
-6.75026e-05
-6.28673e-05
-5.78441e-05
-5.24283e-05
-4.66151e-05
-4.03994e-05
-3.37757e-05
-2.67386e-05
-1.92819e-05
-1.13998e-05
-3.08573e-06
5.66679e-06
1.48645e-05
2.45145e-05
3.46236e-05
4.51993e-05
5.62487e-05
6.77792e-05
7.97984e-05
9.23136e-05
0.000105332
0.000118862
0.00013291
0.000147483
0.000162588
0.000178232
0.000194421
0.000211162
0.000228459
0.000246318
0.000264742
0.000283735
0.0003033
0.000323437
0.000344149
0.000365432
0.000387287
0.000409707
0.00043269
0.000456226
0.000480308
0.000504923
0.000530061
0.000555704
0.000581837
0.000608439
0.000635489
-0.000102691
-0.000103132
-0.000102791
-0.00010226
-0.000101333
-0.000100056
-9.84244e-05
-9.6435e-05
-9.40857e-05
-9.13738e-05
-8.82966e-05
-8.48506e-05
-8.10324e-05
-7.68381e-05
-7.22635e-05
-6.73041e-05
-6.19551e-05
-5.62116e-05
-5.0068e-05
-4.35188e-05
-3.65581e-05
-2.91797e-05
-2.13771e-05
-1.31435e-05
-4.47203e-06
4.64452e-06
1.42136e-05
2.42427e-05
3.47396e-05
4.57122e-05
5.71685e-05
6.91166e-05
8.15646e-05
9.45207e-05
0.000107993
0.00012199
0.000136519
0.000151588
0.000167205
0.000183377
0.000200112
0.000217415
0.000235293
0.000253752
0.000272796
0.000292428
0.000312653
0.000333473
0.000354887
0.000376896
0.000399498
0.000422689
0.000446464
0.000470818
0.00049574
0.00052122
0.000547246
0.000573802
0.000600872
0.000628436
-0.000111977
-0.000112428
-0.000112097
-0.000111583
-0.000110678
-0.000109427
-0.000107827
-0.000105873
-0.000103564
-0.000100897
-9.78689e-05
-9.44762e-05
-9.07153e-05
-8.65821e-05
-8.20724e-05
-7.71814e-05
-7.19041e-05
-6.62352e-05
-6.01692e-05
-5.37001e-05
-4.68218e-05
-3.95276e-05
-3.18109e-05
-2.36643e-05
-1.50807e-05
-6.05235e-06
3.42866e-06
1.33704e-05
2.37812e-05
3.46695e-05
4.60439e-05
5.79131e-05
7.02862e-05
8.31719e-05
9.65792e-05
0.000110517
0.000124995
0.000140021
0.000155604
0.000171753
0.000188475
0.000205779
0.000223672
0.00024216
0.000261251
0.000280949
0.00030126
0.000322187
0.000343732
0.000365897
0.000388683
0.000412088
0.000436109
0.000460742
0.00048598
0.000511816
0.000538238
0.000565234
0.000592789
0.000620887
-0.000121639
-0.0001221
-0.00012178
-0.000121285
-0.000120403
-0.00011918
-0.000117612
-0.000115697
-0.000113431
-0.000110811
-0.000107835
-0.000104499
-0.0001008
-9.67317e-05
-9.22912e-05
-8.74733e-05
-8.22728e-05
-7.6684e-05
-7.07012e-05
-6.43182e-05
-5.75284e-05
-5.0325e-05
-4.27008e-05
-3.46484e-05
-2.61598e-05
-1.7227e-05
-7.84172e-06
2.00479e-06
1.23214e-05
2.31171e-05
3.44012e-05
4.61832e-05
5.84728e-05
7.12795e-05
8.46134e-05
9.84843e-05
0.000112902
0.000127877
0.000143418
0.000159535
0.000176238
0.000193535
0.000211436
0.000229949
0.000249081
0.000268841
0.000289233
0.000310264
0.000331939
0.000354261
0.000377232
0.000400853
0.000425124
0.000450043
0.000475605
0.000501804
0.000528634
0.000556083
0.00058414
0.000612789
-0.000131673
-0.000132144
-0.000131837
-0.000131361
-0.000130503
-0.000129309
-0.000127777
-0.000125902
-0.000123681
-0.000121112
-0.000118192
-0.000114916
-0.000111282
-0.000107283
-0.000102917
-9.81771e-05
-9.30586e-05
-8.75556e-05
-8.16619e-05
-7.53712e-05
-6.86765e-05
-6.15708e-05
-5.40463e-05
-4.60953e-05
-3.77095e-05
-2.88804e-05
-1.95989e-05
-9.85611e-06
3.57577e-07
1.10518e-05
2.22367e-05
3.39222e-05
4.61189e-05
5.88373e-05
7.20883e-05
8.58825e-05
0.000100231
0.000115145
0.000130634
0.000146711
0.000163385
0.000180668
0.000198569
0.000217098
0.000236266
0.00025608
0.000276549
0.00029768
0.000319481
0.000341956
0.000365111
0.000388949
0.000413471
0.000438679
0.000464569
0.00049114
0.000518387
0.0005463
0.000574871
0.000604087
-0.000142073
-0.000142555
-0.000142261
-0.000141805
-0.000140973
-0.000139811
-0.000138316
-0.000136483
-0.000134311
-0.000131796
-0.000128934
-0.000125723
-0.000122158
-0.000118234
-0.000113946
-0.000109289
-0.000104259
-9.88472e-05
-9.3049e-05
-8.68571e-05
-8.02646e-05
-7.32637e-05
-6.58465e-05
-5.80049e-05
-4.973e-05
-4.10129e-05
-3.18441e-05
-2.2214e-05
-1.21125e-05
-1.52929e-06
9.54641e-06
2.11255e-05
3.32192e-05
4.58389e-05
5.89964e-05
7.27035e-05
8.69721e-05
0.000101814
0.000117242
0.000133268
0.000149904
0.000167161
0.000185053
0.000203589
0.000222782
0.000242643
0.000263181
0.000284406
0.000306326
0.000328951
0.000352286
0.000376338
0.000401111
0.000426608
0.00045283
0.000479776
0.000507445
0.000535832
0.000564928
0.000594725
-0.000152835
-0.000153329
-0.000153048
-0.000152614
-0.000151809
-0.00015068
-0.000149224
-0.000147436
-0.000145315
-0.000142857
-0.000140058
-0.000136915
-0.000133424
-0.000129578
-0.000125375
-0.000120807
-0.00011587
-0.000110556
-0.00010486
-9.87737e-05
-9.22905e-05
-8.54021e-05
-7.81002e-05
-7.03762e-05
-6.2221e-05
-5.36249e-05
-4.45782e-05
-3.50705e-05
-2.50912e-05
-1.46292e-05
-3.67319e-06
7.78861e-06
1.97682e-05
3.2278e-05
4.53306e-05
5.89389e-05
7.31159e-05
8.78747e-05
0.000103229
0.000119192
0.000135777
0.000152998
0.000170868
0.000189401
0.000208609
0.000228506
0.000249103
0.000270413
0.000292445
0.000315212
0.000338721
0.000362982
0.000388002
0.000413786
0.000440338
0.000467662
0.000495757
0.000524622
0.000554252
0.00058464
-0.000163954
-0.000164459
-0.000164193
-0.000163782
-0.000163004
-0.000161911
-0.000160496
-0.000158757
-0.00015669
-0.000154292
-0.000151559
-0.000148489
-0.000145075
-0.000141313
-0.000137199
-0.000132726
-0.000127888
-0.000122679
-0.000117091
-0.000111118
-0.000104752
-9.7984e-05
-9.08059e-05
-8.32083e-05
-7.51819e-05
-6.67164e-05
-5.78017e-05
-4.84267e-05
-3.85802e-05
-2.82505e-05
-1.74256e-05
-6.09272e-06
5.76086e-06
1.81484e-05
3.10836e-05
4.45803e-05
5.86526e-05
7.33151e-05
8.85822e-05
0.000104469
0.00012099
0.000138162
0.000155998
0.000174513
0.000193724
0.000213645
0.000234289
0.000255671
0.000277805
0.000300704
0.000324378
0.000348841
0.0003741
0.000400167
0.000427046
0.000454745
0.000483267
0.000512613
0.000542783
0.000573771
-0.000175423
-0.000175941
-0.000175689
-0.000175302
-0.000174555
-0.000173498
-0.000172127
-0.000170438
-0.000168428
-0.000166094
-0.000163432
-0.000160438
-0.000157107
-0.000153434
-0.000149414
-0.000145042
-0.000140309
-0.000135211
-0.00012974
-0.000123888
-0.000117646
-0.000111007
-0.000103962
-9.64998e-05
-8.86118e-05
-8.02871e-05
-7.15149e-05
-6.22835e-05
-5.25813e-05
-4.23957e-05
-3.17138e-05
-2.05225e-05
-8.80788e-06
3.4442e-06
1.62483e-05
2.96194e-05
4.35729e-05
5.81243e-05
7.32898e-05
8.90855e-05
0.000105528
0.000122634
0.000140421
0.000158905
0.000178103
0.000198033
0.00021871
0.000240152
0.000262374
0.000285391
0.00030922
0.000333872
0.000359363
0.000385703
0.000412903
0.000440973
0.000469918
0.000499745
0.000530456
0.000562051
-0.000187236
-0.000187767
-0.000187532
-0.000187169
-0.000186453
-0.000185435
-0.000184111
-0.000182475
-0.000180526
-0.000178259
-0.000175671
-0.000172758
-0.000169514
-0.000165936
-0.000162016
-0.00015775
-0.00015313
-0.00014815
-0.000142802
-0.000137078
-0.00013097
-0.000124469
-0.000117565
-0.000110249
-0.000102509
-9.43362e-05
-8.57176e-05
-7.66415e-05
-6.70955e-05
-5.70665e-05
-4.65408e-05
-3.55044e-05
-2.39427e-05
-1.18404e-05
8.1789e-07
1.40483e-05
2.78673e-05
4.22919e-05
5.73394e-05
7.30276e-05
8.93746e-05
0.000106399
0.000124119
0.000142554
0.000161723
0.000181645
0.000202339
0.000223823
0.000246117
0.000269239
0.000293206
0.000318035
0.000343743
0.000370346
0.000397857
0.000426288
0.00045565
0.000485953
0.000517202
0.000549401
-0.000199388
-0.000199932
-0.000199713
-0.000199377
-0.000198694
-0.000197717
-0.000196441
-0.000194862
-0.000192975
-0.00019078
-0.00018827
-0.000185442
-0.000182291
-0.000178812
-0.000174999
-0.000170845
-0.000166345
-0.00016149
-0.000156273
-0.000150686
-0.00014472
-0.000138366
-0.000131614
-0.000124453
-0.000116873
-0.000108863
-0.000100409
-9.15007e-05
-8.21238e-05
-7.22646e-05
-6.19089e-05
-5.10418e-05
-3.96478e-05
-2.77108e-05
-1.52142e-05
-2.14087e-06
1.15268e-05
2.58072e-05
4.0719e-05
5.62816e-05
7.25147e-05
8.94384e-05
0.000107073
0.00012544
0.000144561
0.000164455
0.000185146
0.000206654
0.000229001
0.000252208
0.000276296
0.000301285
0.000327195
0.000354045
0.000381852
0.000410632
0.000440401
0.000471171
0.000502952
0.000535753
-0.00021187
-0.000212428
-0.000212227
-0.000211918
-0.00021127
-0.000210336
-0.000209111
-0.000207591
-0.000205771
-0.00020365
-0.000201223
-0.000198485
-0.000195432
-0.000192058
-0.000188357
-0.000184323
-0.000179949
-0.000175227
-0.000170149
-0.000164708
-0.000158893
-0.000152695
-0.000146104
-0.00013911
-0.0001317
-0.000123864
-0.000115589
-0.000106861
-9.76662e-05
-8.7991e-05
-7.782e-05
-6.71375e-05
-5.5927e-05
-4.41717e-05
-3.18539e-05
-1.89554e-05
-5.45718e-06
8.66025e-06
2.34171e-05
3.88343e-05
5.49331e-05
7.17356e-05
8.92642e-05
0.000107542
0.000126592
0.000146437
0.000167103
0.000188613
0.000210991
0.000234262
0.000258449
0.000283577
0.000309669
0.000336747
0.000364832
0.000393946
0.000424106
0.000455331
0.000487635
0.00052103
-0.000224677
-0.000225249
-0.000225066
-0.000224786
-0.000224174
-0.000223285
-0.000222114
-0.000220655
-0.000218907
-0.000216864
-0.000214524
-0.000211881
-0.000208931
-0.000205667
-0.000202085
-0.000198177
-0.000193936
-0.000189355
-0.000184425
-0.000179137
-0.000173482
-0.000167451
-0.000161033
-0.000154216
-0.000146989
-0.000139339
-0.000131254
-0.00012272
-0.000113723
-0.000104246
-9.42754e-05
-8.37936e-05
-7.27837e-05
-6.12276e-05
-4.91068e-05
-3.6402e-05
-2.30929e-05
-9.15861e-06
5.42247e-06
2.06728e-05
3.66153e-05
5.3274e-05
7.0673e-05
8.88374e-05
0.000107793
0.000127565
0.000148181
0.000169667
0.000192052
0.000215361
0.000239624
0.000264866
0.000291115
0.000318398
0.00034674
0.000376166
0.0004067
0.000438362
0.000471174
0.000505152
-0.000237799
-0.000238386
-0.000238222
-0.000237972
-0.000237399
-0.000236557
-0.000235442
-0.000234048
-0.000232373
-0.000230414
-0.000228164
-0.000225622
-0.00022278
-0.000219633
-0.000216176
-0.000212401
-0.000208301
-0.000203868
-0.000199094
-0.000193969
-0.000188485
-0.00018263
-0.000176395
-0.000169767
-0.000162734
-0.000155285
-0.000147404
-0.000139078
-0.000130292
-0.00012103
-0.000111276
-0.000101012
-9.02203e-05
-7.88821e-05
-6.69778e-05
-5.44868e-05
-4.13877e-05
-2.76583e-05
-1.32755e-05
1.78476e-06
1.75471e-05
3.40371e-05
5.12812e-05
6.93063e-05
8.81404e-05
0.000107812
0.000128351
0.000149786
0.000172148
0.000195468
0.000219777
0.000245106
0.000271485
0.000298945
0.000327517
0.00035723
0.000388112
0.00042019
0.00045349
0.000488033
-0.00025123
-0.000251833
-0.000251688
-0.00025147
-0.000250936
-0.000250144
-0.000249088
-0.000247762
-0.000246165
-0.000244291
-0.000242138
-0.0002397
-0.000236972
-0.000233948
-0.000230622
-0.000226987
-0.000223036
-0.00021876
-0.00021415
-0.000209198
-0.000203894
-0.000198227
-0.000192186
-0.000185759
-0.000178934
-0.000171697
-0.000164034
-0.000155932
-0.000147373
-0.000138342
-0.000128821
-0.000118793
-0.000108239
-9.71382e-05
-8.54709e-05
-7.32152e-05
-6.03484e-05
-4.6847e-05
-3.26865e-05
-1.78413e-05
-2.28506e-06
1.40096e-05
3.10711e-05
4.89285e-05
6.76122e-05
8.71534e-05
0.000107584
0.000128937
0.000151245
0.000174544
0.000198867
0.000224249
0.000250726
0.000278332
0.000307102
0.000337072
0.000368273
0.000400739
0.000434501
0.000469586
-0.000264961
-0.000265579
-0.000265456
-0.00026527
-0.000264778
-0.000264037
-0.000263042
-0.000261788
-0.000260272
-0.000258489
-0.000256436
-0.000254108
-0.0002515
-0.000248605
-0.000245417
-0.000241929
-0.000238134
-0.000234023
-0.000229588
-0.000224818
-0.000219704
-0.000214235
-0.0002084
-0.000202187
-0.000195582
-0.000188572
-0.000181142
-0.000173278
-0.000164963
-0.00015618
-0.000146911
-0.000137137
-0.00012684
-0.000115998
-0.000104589
-9.25916e-05
-7.99808e-05
-6.67321e-05
-5.28195e-05
-3.82161e-05
-2.28938e-05
-6.82328e-06
1.00257e-05
2.76846e-05
4.61861e-05
6.55639e-05
8.58529e-05
0.000107089
0.000129309
0.00015255
0.000176851
0.00020225
0.000228787
0.000256502
0.000285434
0.000315624
0.00034711
0.00037993
0.000414122
0.00044972
-0.000278983
-0.000279617
-0.000279515
-0.000279363
-0.000278915
-0.000278228
-0.000277298
-0.000276118
-0.000274686
-0.000272999
-0.000271051
-0.000268838
-0.000266354
-0.000263595
-0.000260552
-0.000257219
-0.000253588
-0.000249651
-0.000245398
-0.000240821
-0.000235908
-0.000230649
-0.000225032
-0.000219045
-0.000212674
-0.000205905
-0.000198723
-0.000191113
-0.000183058
-0.000174541
-0.000165543
-0.000156044
-0.000146024
-0.000135462
-0.000124335
-0.000112619
-0.00010029
-8.73197e-05
-7.36825e-05
-5.93494e-05
-4.42907e-05
-2.84753e-05
-1.1871e-05
5.55607e-06
2.38408e-05
4.30198e-05
6.31305e-05
8.42119e-05
0.000106304
0.000129448
0.000153686
0.000179061
0.000205617
0.000233399
0.000262451
0.000292819
0.000324549
0.000357683
0.000392267
0.000428341
-0.000293286
-0.000293938
-0.000293858
-0.000293741
-0.000293339
-0.000292708
-0.000291844
-0.000290742
-0.000289399
-0.00028781
-0.000285972
-0.00028388
-0.000281528
-0.000278909
-0.000276019
-0.000272848
-0.000269389
-0.000265635
-0.000261575
-0.000257199
-0.000252498
-0.000247461
-0.000242074
-0.000236326
-0.000230202
-0.000223689
-0.000216772
-0.000209433
-0.000201656
-0.000193423
-0.000184714
-0.000175511
-0.000165791
-0.000155532
-0.00014471
-0.000133301
-0.000121278
-0.000108615
-9.52821e-05
-8.12497e-05
-6.64862e-05
-5.0959e-05
-3.46337e-05
-1.74743e-05
5.56641e-07
1.94981e-05
3.93906e-05
6.02761e-05
8.21979e-05
0.000105201
0.000129331