/*--------------------------------*- C++ -*----------------------------------*\
  =========                 |
  \\      /  F ield         | OpenFOAM: The Open Source CFD Toolbox
   \\    /   O peration     | Website:  https://openfoam.org
    \\  /    A nd           | Version:  8
     \\/     M anipulation  |
\*---------------------------------------------------------------------------*/
FoamFile
{
    version     2.0;
    format      ascii;
    class       surfaceScalarField;
    location    "22";
    object      phi;
}
// * * * * * * * * * * * * * * * * * * * * * * * * * * * * * * * * * * * * * //

dimensions      [0 3 -1 0 0 0 0];

internalField   nonuniform List<scalar> 
22960
(
-1.55606e-07
1.55635e-07
-5.33617e-07
3.78012e-07
-9.889e-07
4.55283e-07
-1.46393e-06
4.75034e-07
-1.94119e-06
4.77256e-07
-2.41746e-06
4.76264e-07
-2.8926e-06
4.75146e-07
-3.36671e-06
4.7411e-07
-3.83977e-06
4.73057e-07
-4.31168e-06
4.71916e-07
-4.78233e-06
4.70648e-07
-5.25157e-06
4.69235e-07
-5.71923e-06
4.67666e-07
-6.18517e-06
4.65934e-07
-6.6492e-06
4.64035e-07
-7.11116e-06
4.61962e-07
-7.57088e-06
4.59712e-07
-8.02816e-06
4.57279e-07
-8.48282e-06
4.54661e-07
-8.93467e-06
4.51851e-07
-9.38351e-06
4.48846e-07
-9.82915e-06
4.45641e-07
-1.02714e-05
4.42232e-07
-1.071e-05
4.38615e-07
-1.11448e-05
4.34786e-07
-1.15755e-05
4.30743e-07
-1.2002e-05
4.26482e-07
-1.2424e-05
4.22002e-07
-1.28413e-05
4.17302e-07
-1.32537e-05
4.12384e-07
-1.3661e-05
4.0725e-07
-1.40629e-05
4.01904e-07
-1.44592e-05
3.96354e-07
-1.48498e-05
3.90612e-07
-1.52345e-05
3.84693e-07
-1.56131e-05
3.78618e-07
-1.59855e-05
3.72415e-07
-1.63517e-05
3.66121e-07
-1.67114e-05
3.59782e-07
-1.70649e-05
3.53461e-07
-1.74121e-05
3.47238e-07
-1.77534e-05
3.41215e-07
-1.80889e-05
3.35527e-07
-1.84192e-05
3.30348e-07
-1.87451e-05
3.25907e-07
-1.90677e-05
3.22507e-07
-1.93882e-05
3.20554e-07
-1.97088e-05
3.206e-07
-2.00322e-05
3.23403e-07
-2.03622e-05
3.30026e-07
-2.07042e-05
3.41986e-07
-2.10657e-05
3.61512e-07
-2.14577e-05
3.92004e-07
-2.18967e-05
4.38918e-07
-2.24093e-05
5.12616e-07
-2.30493e-05
6.39989e-07
-2.39405e-05
8.91273e-07
-2.53723e-05
1.43181e-06
-2.90355e-05
3.66312e-06
8.41501e-06
-3.74505e-05
-3.8129e-07
5.36925e-07
-1.10315e-06
1.09988e-06
-1.94521e-06
1.29734e-06
-2.82057e-06
1.3504e-06
-3.70275e-06
1.35943e-06
-4.58505e-06
1.35857e-06
-5.46572e-06
1.35582e-06
-6.34408e-06
1.35247e-06
-7.21966e-06
1.34864e-06
-8.09206e-06
1.34431e-06
-8.96086e-06
1.33945e-06
-9.82566e-06
1.33403e-06
-1.0686e-05
1.32805e-06
-1.15416e-05
1.32149e-06
-1.23919e-05
1.31433e-06
-1.32365e-05
1.30659e-06
-1.4075e-05
1.29824e-06
-1.4907e-05
1.28927e-06
-1.57321e-05
1.27969e-06
-1.65497e-05
1.26949e-06
-1.73595e-05
1.25865e-06
-1.8161e-05
1.24717e-06
-1.89539e-05
1.23505e-06
-1.97375e-05
1.22228e-06
-2.05116e-05
1.20886e-06
-2.12756e-05
1.19479e-06
-2.20292e-05
1.18006e-06
-2.27719e-05
1.16469e-06
-2.35033e-05
1.14867e-06
-2.42229e-05
1.13202e-06
-2.49304e-05
1.11476e-06
-2.56254e-05
1.0969e-06
-2.63075e-05
1.07848e-06
-2.69764e-05
1.05954e-06
-2.76319e-05
1.04013e-06
-2.82736e-05
1.02032e-06
-2.89014e-05
1.0002e-06
-2.95151e-05
9.79885e-07
-3.01149e-05
9.59514e-07
-3.07007e-05
9.39274e-07
-3.12728e-05
9.19398e-07
-3.18318e-05
9.00188e-07
-3.23783e-05
8.82033e-07
-3.29134e-05
8.65437e-07
-3.34386e-05
8.51063e-07
-3.39558e-05
8.39787e-07
-3.44681e-05
8.32792e-07
-3.49792e-05
8.3169e-07
-3.54945e-05
8.3873e-07
-3.60216e-05
8.57115e-07
-3.65711e-05
8.91524e-07
-3.71586e-05
9.49018e-07
-3.78072e-05
1.04059e-06
-3.85524e-05
1.18409e-06
-3.94509e-05
1.41113e-06
-4.05951e-05
1.78421e-06
-4.21246e-05
2.42076e-06
-4.42658e-05
3.57297e-06
-4.69956e-05
6.39298e-06
1.05717e-05
-4.91523e-05
-4.62002e-07
9.98927e-07
-1.30876e-06
1.94664e-06
-2.28799e-06
2.27656e-06
-3.30205e-06
2.36447e-06
-4.32279e-06
2.38017e-06
-5.34322e-06
2.379e-06
-6.36144e-06
2.37403e-06
-7.37665e-06
2.36768e-06
-8.3883e-06
2.36028e-06
-9.39584e-06
2.35186e-06
-1.03988e-05
2.34238e-06
-1.13966e-05
2.33182e-06
-1.23887e-05
2.32018e-06
-1.33746e-05
2.30744e-06
-1.43539e-05
2.29359e-06
-1.53259e-05
2.27861e-06
-1.62902e-05
2.26251e-06
-1.72462e-05
2.24526e-06
-1.81934e-05
2.22687e-06
-1.91312e-05
2.20732e-06
-2.00592e-05
2.18661e-06
-2.09767e-05
2.16474e-06
-2.18834e-05
2.14168e-06
-2.27785e-05
2.11746e-06
-2.36617e-05
2.09206e-06
-2.45324e-05
2.06548e-06
-2.53901e-05
2.03775e-06
-2.62343e-05
2.00885e-06
-2.70644e-05
1.97882e-06
-2.78801e-05
1.94768e-06
-2.86808e-05
1.91546e-06
-2.94661e-05
1.88221e-06
-3.02356e-05
1.84798e-06
-3.09889e-05
1.81286e-06
-3.17257e-05
1.77693e-06
-3.24458e-05
1.74033e-06
-3.31488e-05
1.70321e-06
-3.38347e-05
1.66577e-06
-3.45034e-05
1.62827e-06
-3.51551e-05
1.59101e-06
-3.57901e-05
1.5544e-06
-3.64089e-05
1.51895e-06
-3.70122e-05
1.48533e-06
-3.76011e-05
1.45438e-06
-3.81773e-05
1.4272e-06
-3.87428e-05
1.40526e-06
-3.93005e-05
1.39048e-06
-3.98543e-05
1.38549e-06
-4.04094e-05
1.39387e-06
-4.09729e-05
1.42064e-06
-4.15544e-05
1.47298e-06
-4.21668e-05
1.56141e-06
-4.28279e-05
1.70169e-06
-4.35622e-05
1.91837e-06
-4.44029e-05
2.25184e-06
-4.53898e-05
2.77112e-06
-4.65568e-05
3.58777e-06
-4.7909e-05
4.92518e-06
-4.88977e-05
7.38167e-06
1.059e-05
-4.89161e-05
-4.83908e-07
1.48284e-06
-1.36765e-06
2.83038e-06
-2.38581e-06
3.29471e-06
-3.43825e-06
3.41691e-06
-4.49691e-06
3.43884e-06
-5.55503e-06
3.43711e-06
-6.61079e-06
3.4298e-06
-7.6634e-06
3.42029e-06
-8.71223e-06
3.40911e-06
-9.7567e-06
3.39633e-06
-1.07963e-05
3.38193e-06
-1.18303e-05
3.36591e-06
-1.28584e-05
3.34824e-06
-1.38799e-05
3.32892e-06
-1.48942e-05
3.30793e-06
-1.59009e-05
3.28526e-06
-1.68993e-05
3.2609e-06
-1.78889e-05
3.23485e-06
-1.88691e-05
3.20709e-06
-1.98394e-05
3.17762e-06
-2.07992e-05
3.14643e-06
-2.1748e-05
3.11351e-06
-2.26852e-05
3.07887e-06
-2.36102e-05
3.0425e-06
-2.45225e-05
3.0044e-06
-2.54217e-05
2.96459e-06
-2.6307e-05
2.92307e-06
-2.7178e-05
2.87987e-06
-2.80342e-05
2.83501e-06
-2.8875e-05
2.78854e-06
-2.97001e-05
2.7405e-06
-3.05088e-05
2.69096e-06
-3.13008e-05
2.64001e-06
-3.20757e-05
2.58776e-06
-3.28332e-05
2.53434e-06
-3.35728e-05
2.47994e-06
-3.42943e-05
2.42478e-06
-3.49977e-05
2.36913e-06
-3.56828e-05
2.31334e-06
-3.63496e-05
2.25785e-06
-3.69984e-05
2.20322e-06
-3.76296e-05
2.15014e-06
-3.82438e-05
2.09951e-06
-3.88419e-05
2.05248e-06
-3.94252e-05
2.01051e-06
-3.99955e-05
1.97553e-06
-4.0555e-05
1.95007e-06
-4.11071e-05
1.9375e-06
-4.16555e-05
1.94236e-06
-4.22058e-05
1.97088e-06
-4.27645e-05
2.03171e-06
-4.33402e-05
2.13706e-06
-4.39429e-05
2.30445e-06
-4.4584e-05
2.55947e-06
-4.52727e-05
2.94053e-06
-4.60066e-05
3.505e-06
-4.67538e-05
4.33501e-06
-4.7399e-05
5.57035e-06
-4.74624e-05
7.4451e-06
9.69541e-06
-4.65678e-05
-4.8751e-07
1.97035e-06
-1.38122e-06
3.72409e-06
-2.40987e-06
4.32336e-06
-3.47251e-06
4.47955e-06
-4.54108e-06
4.50741e-06
-5.60893e-06
4.50496e-06
-6.67432e-06
4.49519e-06
-7.7365e-06
4.48247e-06
-8.79485e-06
4.46746e-06
-9.84879e-06
4.45027e-06
-1.08978e-05
4.4309e-06
-1.19412e-05
4.40933e-06
-1.29785e-05
4.38555e-06
-1.40091e-05
4.35956e-06
-1.50325e-05
4.33133e-06
-1.60481e-05
4.30087e-06
-1.70554e-05
4.26815e-06
-1.80537e-05
4.23317e-06
-1.90425e-05
4.19592e-06
-2.00213e-05
4.15639e-06
-2.09894e-05
4.11457e-06
-2.19464e-05
4.07047e-06
-2.28916e-05
4.02407e-06
-2.38245e-05
3.97538e-06
-2.47445e-05
3.92441e-06
-2.56511e-05
3.87117e-06
-2.65437e-05
3.81568e-06
-2.74218e-05
3.75796e-06
-2.82848e-05
3.69805e-06
-2.91323e-05
3.636e-06
-2.99637e-05
3.57188e-06
-3.07785e-05
3.50578e-06
-3.15763e-05
3.4378e-06
-3.23566e-05
3.36808e-06
-3.3119e-05
3.2968e-06
-3.38633e-05
3.22418e-06
-3.4589e-05
3.15049e-06
-3.5296e-05
3.07608e-06
-3.5984e-05
3.00138e-06
-3.66531e-05
2.92692e-06
-3.73032e-05
2.85337e-06
-3.79347e-05
2.78158e-06
-3.85478e-05
2.71263e-06
-3.91432e-05
2.64785e-06
-3.97216e-05
2.58899e-06
-4.02844e-05
2.53827e-06
-4.08329e-05
2.49856e-06
-4.1369e-05
2.47365e-06
-4.18951e-05
2.46848e-06
-4.24139e-05
2.48968e-06
-4.29284e-05
2.54612e-06
-4.34411e-05
2.64984e-06
-4.39539e-05
2.81722e-06
-4.44651e-05
3.0707e-06
-4.49656e-05
3.44103e-06
-4.54292e-05
3.9686e-06
-4.57992e-05
4.70499e-06
-4.595e-05
5.72116e-06
-4.55815e-05
7.07655e-06
8.62592e-06
-4.4512e-05
-4.87725e-07
2.45807e-06
-1.38494e-06
4.62131e-06
-2.41755e-06
5.35598e-06
-3.48418e-06
5.54618e-06
-4.5566e-06
5.57982e-06
-5.62818e-06
5.57654e-06
-6.69726e-06
5.56427e-06
-7.7631e-06
5.5483e-06
-8.82509e-06
5.52946e-06
-9.88267e-06
5.50785e-06
-1.09353e-05
5.48349e-06
-1.19823e-05
5.45637e-06
-1.30232e-05
5.42648e-06
-1.40575e-05
5.39381e-06
-1.50845e-05
5.35834e-06
-1.61037e-05
5.32006e-06
-1.71145e-05
5.27897e-06
-1.81164e-05
5.23504e-06
-1.91088e-05
5.18828e-06
-2.0091e-05
5.13867e-06
-2.10627e-05
5.08621e-06
-2.20231e-05
5.03088e-06
-2.29717e-05
4.9727e-06
-2.3908e-05
4.91166e-06
-2.48313e-05
4.84777e-06
-2.57412e-05
4.78105e-06
-2.66371e-05
4.71151e-06
-2.75183e-05
4.6392e-06
-2.83844e-05
4.56415e-06
-2.92348e-05
4.48642e-06
-3.0069e-05
4.4061e-06
-3.08865e-05
4.32328e-06
-3.16868e-05
4.23809e-06
-3.24694e-05
4.15069e-06
-3.32339e-05
4.06129e-06
-3.39799e-05
3.97013e-06
-3.47069e-05
3.87753e-06
-3.54147e-05
3.78389e-06
-3.6103e-05
3.68968e-06
-3.67716e-05
3.59553e-06
-3.74204e-05
3.50217e-06
-3.80494e-05
3.41054e-06
-3.86586e-05
3.32184e-06
-3.92482e-05
3.23752e-06
-3.98187e-05
3.15945e-06
-4.03704e-05
3.08999e-06
-4.0904e-05
3.03213e-06
-4.14201e-05
2.98971e-06
-4.19193e-05
2.96767e-06
-4.24019e-05
2.97236e-06
-4.28678e-05
3.01202e-06
-4.33153e-05
3.09731e-06
-4.374e-05
3.24192e-06
-4.41326e-05
3.46334e-06
-4.44749e-05
3.78326e-06
-4.47333e-05
4.22703e-06
-4.48499e-05
4.82159e-06
-4.47209e-05
5.59216e-06
-4.41796e-05
6.53526e-06
7.55955e-06
-4.31132e-05
-4.87986e-07
2.94606e-06
-1.38757e-06
5.52089e-06
-2.4231e-06
6.3915e-06
-3.49282e-06
6.6159e-06
-4.56831e-06
6.65532e-06
-5.64293e-06
6.65115e-06
-6.71501e-06
6.63636e-06
-7.78383e-06
6.61712e-06
-8.84881e-06
6.59444e-06
-9.90937e-06
6.56842e-06
-1.0965e-05
6.53908e-06
-1.2015e-05
6.50642e-06
-1.30589e-05
6.47042e-06
-1.40962e-05
6.43108e-06
-1.51262e-05
6.38837e-06
-1.61485e-05
6.34229e-06
-1.71623e-05
6.29282e-06
-1.81672e-05
6.23996e-06
-1.91626e-05
6.18369e-06
-2.0148e-05
6.124e-06
-2.11227e-05
6.06088e-06
-2.20861e-05
5.99434e-06
-2.30378e-05
5.92436e-06
-2.39771e-05
5.85095e-06
-2.49034e-05
5.77412e-06
-2.58163e-05
5.69389e-06
-2.6715e-05
5.61028e-06
-2.75991e-05
5.52331e-06
-2.84681e-05
5.43306e-06
-2.93212e-05
5.33957e-06
-3.0158e-05
5.24293e-06
-3.0978e-05
5.14326e-06
-3.17806e-05
5.04069e-06
-3.25653e-05
4.9354e-06
-3.33316e-05
4.8276e-06
-3.40791e-05
4.71758e-06
-3.48072e-05
4.60567e-06
-3.55156e-05
4.49229e-06
-3.62039e-05
4.37796e-06
-3.68717e-05
4.26333e-06
-3.75187e-05
4.14919e-06
-3.81447e-05
4.03653e-06
-3.87494e-05
3.92656e-06
-3.93327e-05
3.82078e-06
-3.98943e-05
3.72108e-06
-4.04341e-05
3.6298e-06
-4.09519e-05
3.54984e-06
-4.1447e-05
3.48485e-06
-4.19187e-05
3.43938e-06
-4.23655e-05
3.41912e-06
-4.27846e-05
3.43113e-06
-4.31713e-05
3.48409e-06
-4.35179e-05
3.58852e-06
-4.38114e-05
3.75678e-06
-4.40307e-05
4.00261e-06
-4.41433e-05
4.33963e-06
-4.41001e-05
4.77834e-06
-4.38286e-05
5.32063e-06
-4.32363e-05
5.94302e-06
6.57751e-06
-4.22543e-05
-4.88608e-07
3.43466e-06
-1.39066e-06
6.42294e-06
-2.42929e-06
7.43014e-06
-3.50236e-06
7.68897e-06
-4.58123e-06
7.73418e-06
-5.6592e-06
7.72913e-06
-6.73463e-06
7.71179e-06
-7.8068e-06
7.68929e-06
-8.87512e-06
7.66276e-06
-9.93904e-06
7.63233e-06
-1.0998e-05
7.59803e-06
-1.20514e-05
7.55983e-06
-1.30987e-05
7.51774e-06
-1.41394e-05
7.47173e-06
-1.51728e-05
7.4218e-06
-1.61984e-05
7.36793e-06
-1.72157e-05
7.3101e-06
-1.82241e-05
7.24831e-06
-1.92229e-05
7.18254e-06
-2.02117e-05
7.11278e-06
-2.11898e-05
7.03902e-06
-2.21568e-05
6.96125e-06
-2.31119e-05
6.87947e-06
-2.40546e-05
6.79369e-06
-2.49844e-05
6.7039e-06
-2.59006e-05
6.61013e-06
-2.68027e-05
6.5124e-06
-2.76902e-05
6.41074e-06
-2.85623e-05
6.30521e-06
-2.94186e-05
6.19587e-06
-3.02585e-05
6.08281e-06
-3.10814e-05
5.96614e-06
-3.18867e-05
5.84601e-06
-3.26739e-05
5.7226e-06
-3.34424e-05
5.59613e-06
-3.41917e-05
5.4669e-06
-3.49213e-05
5.33524e-06
-3.56306e-05
5.20159e-06
-3.63192e-05
5.06649e-06
-3.69864e-05
4.93058e-06
-3.76319e-05
4.79466e-06
-3.8255e-05
4.65971e-06
-3.88554e-05
4.52693e-06
-3.94324e-05
4.39778e-06
-3.99854e-05
4.27406e-06
-4.05136e-05
4.15797e-06
-4.10159e-05
4.05219e-06
-4.14911e-05
3.95999e-06
-4.1937e-05
3.88533e-06
-4.23509e-05
3.83298e-06
-4.27283e-05
3.8086e-06
-4.30631e-05
3.81882e-06
-4.33456e-05
3.87105e-06
-4.35621e-05
3.97325e-06
-4.36924e-05
4.13299e-06
-4.37087e-05
4.35584e-06
-4.35729e-05
4.64261e-06
-4.3237e-05
4.98473e-06
-4.26492e-05
5.35517e-06
5.70295e-06
-4.17746e-05
-4.89516e-07
3.92418e-06
-1.39438e-06
7.3278e-06
-2.43658e-06
8.47234e-06
-3.51346e-06
8.76585e-06
-4.5962e-06
8.81692e-06
-5.67804e-06
8.81097e-06
-6.75735e-06
8.79109e-06
-7.83339e-06
8.76533e-06
-8.90558e-06
8.73496e-06
-9.97338e-06
8.70013e-06
-1.10362e-05
8.66087e-06
-1.20935e-05
8.61715e-06
-1.31448e-05
8.56897e-06
-1.41894e-05
8.51632e-06
-1.52267e-05
8.45918e-06
-1.62563e-05
8.39753e-06
-1.72776e-05
8.33135e-06
-1.82899e-05
8.26065e-06
-1.92928e-05
8.18539e-06
-2.02855e-05
8.10556e-06
-2.12677e-05
8.02116e-06
-2.22386e-05
7.93217e-06
-2.31977e-05
7.83859e-06
-2.41445e-05
7.74042e-06
-2.50782e-05
7.63766e-06
-2.59984e-05
7.53033e-06
-2.69045e-05
7.41844e-06
-2.77958e-05
7.30204e-06
-2.86717e-05
7.18116e-06
-2.95317e-05
7.05588e-06
-3.03752e-05
6.92628e-06
-3.12015e-05
6.79247e-06
-3.20101e-05
6.65459e-06
-3.28003e-05
6.51283e-06
-3.35716e-05
6.36741e-06
-3.43233e-05
6.2186e-06
-3.50548e-05
6.06676e-06
-3.57655e-05
5.91231e-06
-3.64548e-05
5.75577e-06
-3.7122e-05
5.59776e-06
-3.77664e-05
5.43907e-06
-3.83873e-05
5.28061e-06
-3.89839e-05
5.12353e-06
-3.95553e-05
4.96918e-06
-4.01005e-05
4.81922e-06
-4.06181e-05
4.6756e-06
-4.11066e-05
4.54069e-06
-4.15639e-05
4.41726e-06
-4.19872e-05
4.30861e-06
-4.23727e-05
4.21851e-06
-4.27153e-05
4.15124e-06
-4.3008e-05
4.11147e-06
-4.32409e-05
4.10402e-06
-4.34011e-05
4.13337e-06
-4.34708e-05
4.20274e-06
-4.34277e-05
4.31269e-06
-4.3244e-05
4.45891e-06
-4.28884e-05
4.62917e-06
-4.23322e-05
4.79896e-06
4.93029e-06
-4.15595e-05
-4.90647e-07
4.41483e-06
-1.39872e-06
8.23588e-06
-2.44499e-06
9.51861e-06
-3.52621e-06
9.84707e-06
-4.61334e-06
9.90405e-06
-5.6996e-06
9.89723e-06
-6.78332e-06
9.87481e-06
-7.86378e-06
9.84579e-06
-8.94041e-06
9.81158e-06
-1.00126e-05
9.77237e-06
-1.10799e-05
9.72815e-06
-1.21417e-05
9.67893e-06
-1.31974e-05
9.62468e-06
-1.42465e-05
9.5654e-06
-1.52884e-05
9.50106e-06
-1.63225e-05
9.43164e-06
-1.73483e-05
9.35714e-06
-1.83652e-05
9.27753e-06
-1.93726e-05
9.19279e-06
-2.03699e-05
9.10292e-06
-2.13567e-05
9.00788e-06
-2.23322e-05
8.90768e-06
-2.32959e-05
8.8023e-06
-2.42472e-05
8.69174e-06
-2.51855e-05
8.57599e-06
-2.61103e-05
8.45507e-06
-2.70208e-05
8.329e-06
-2.79166e-05
8.1978e-06
-2.87969e-05
8.06151e-06
-2.96613e-05
7.9202e-06
-3.05089e-05
7.77395e-06
-3.13393e-05
7.62285e-06
-3.21517e-05
7.46704e-06
-3.29456e-05
7.3067e-06
-3.37202e-05
7.14203e-06
-3.44749e-05
6.97331e-06
-3.5209e-05
6.80086e-06
-3.59218e-05
6.62507e-06
-3.66125e-05
6.44645e-06
-3.72803e-05
6.26557e-06
-3.79244e-05
6.08315e-06
-3.85438e-05
5.90005e-06
-3.91376e-05
5.71728e-06
-3.97045e-05
5.53607e-06
-4.02431e-05
5.35786e-06
-4.07519e-05
5.18435e-06
-4.12287e-05
5.0175e-06
-4.1671e-05
4.85958e-06
-4.20755e-05
4.71317e-06
-4.24381e-05
4.58109e-06
-4.27533e-05
4.46638e-06
-4.30139e-05
4.37207e-06
-4.32107e-05
4.30089e-06
-4.33322e-05
4.2548e-06
-4.33636e-05
4.23418e-06
-4.32876e-05
4.23669e-06
-4.30845e-05
4.25583e-06
-4.27343e-05
4.27899e-06
-4.22213e-05
4.28593e-06
4.24823e-06
-4.15393e-05
-4.91966e-07
4.90679e-06
-1.40367e-06
9.14758e-06
-2.45452e-06
1.05695e-05
-3.54061e-06
1.09332e-05
-4.63268e-06
1.09961e-05
-5.7239e-06
1.09884e-05
-6.81258e-06
1.09635e-05
-7.89802e-06
1.09312e-05
-8.97963e-06
1.08932e-05
-1.00569e-05
1.08496e-05
-1.11292e-05
1.08004e-05
-1.2196e-05
1.07457e-05
-1.32567e-05
1.06854e-05
-1.43108e-05
1.06195e-05
-1.53578e-05
1.0548e-05
-1.6397e-05
1.04709e-05
-1.74279e-05
1.0388e-05
-1.84499e-05
1.02995e-05
-1.94624e-05
1.02053e-05
-2.04649e-05
1.01054e-05
-2.14568e-05
9.99977e-06
-2.24375e-05
9.88836e-06
-2.34064e-05
9.77118e-06
-2.43629e-05
9.64823e-06
-2.53064e-05
9.51949e-06
-2.62363e-05
9.38497e-06
-2.7152e-05
9.24468e-06
-2.80528e-05
9.09864e-06
-2.89382e-05
8.94688e-06
-2.98074e-05
8.78946e-06
-3.06599e-05
8.62644e-06
-3.1495e-05
8.45792e-06
-3.2312e-05
8.28401e-06
-3.31101e-05
8.10487e-06
-3.38888e-05
7.92069e-06
-3.46472e-05
7.73172e-06
-3.53846e-05
7.53824e-06
-3.61001e-05
7.34063e-06
-3.6793e-05
7.13933e-06
-3.74623e-05
6.93486e-06
-3.8107e-05
6.72785e-06
-3.8726e-05
6.51906e-06
-3.93181e-05
6.30939e-06
-3.98819e-05
6.09987e-06
-4.04158e-05
5.89171e-06
-4.09178e-05
5.68632e-06
-4.13855e-05
5.48526e-06
-4.18162e-05
5.2903e-06
-4.22064e-05
5.10334e-06
-4.25517e-05
4.92636e-06
-4.28466e-05
4.76132e-06
-4.30845e-05
4.60994e-06
-4.3257e-05
4.47342e-06
-4.33542e-05
4.35198e-06
-4.33643e-05
4.24427e-06
-4.32741e-05
4.14651e-06
-4.30699e-05
4.05159e-06
-4.2739e-05
3.94814e-06
-4.22728e-05
3.81973e-06
3.64531e-06
-4.16699e-05
-4.93454e-07
5.40025e-06
-1.4092e-06
1.00633e-05
-2.46516e-06
1.16254e-05
-3.55665e-06
1.20247e-05
-4.6542e-06
1.20937e-05
-5.75092e-06
1.20852e-05
-6.84511e-06
1.20577e-05
-7.93607e-06
1.20222e-05
-9.02322e-06
1.19803e-05
-1.0106e-05
1.19324e-05
-1.11839e-05
1.18783e-05
-1.22562e-05
1.18181e-05
-1.33226e-05
1.17518e-05
-1.43823e-05
1.16793e-05
-1.54349e-05
1.16006e-05
-1.64798e-05
1.15157e-05
-1.75164e-05
1.14246e-05
-1.85441e-05
1.13272e-05
-1.95623e-05
1.12236e-05
-2.05706e-05
1.11137e-05
-2.15682e-05
1.09974e-05
-2.25547e-05
1.08748e-05
-2.35293e-05
1.07458e-05
-2.44916e-05
1.06105e-05
-2.54409e-05
1.04688e-05
-2.63765e-05
1.03206e-05
-2.7298e-05
1.01661e-05
-2.82045e-05
1.00052e-05
-2.90955e-05
9.83791e-06
-2.99704e-05
9.6643e-06
-3.08284e-05
9.48443e-06
-3.16688e-05
9.29835e-06
-3.2491e-05
9.10619e-06
-3.32942e-05
8.90805e-06
-3.40776e-05
8.70412e-06
-3.48405e-05
8.49459e-06
-3.5582e-05
8.27974e-06
-3.63012e-05
8.05986e-06
-3.69972e-05
7.83533e-06
-3.7669e-05
7.60663e-06
-3.83154e-05
7.37427e-06
-3.89352e-05
7.13891e-06
-3.95271e-05
6.90127e-06
-4.00895e-05
6.66223e-06
-4.06205e-05
6.42273e-06
-4.11181e-05
6.18389e-06
-4.15797e-05
5.94689e-06
-4.20024e-05
5.71302e-06
-4.23826e-05
5.48357e-06
-4.27161e-05
5.25982e-06
-4.29976e-05
5.04285e-06
-4.32211e-05
4.8334e-06
-4.33792e-05
4.63157e-06
-4.34637e-05
4.43647e-06
-4.34652e-05
4.24578e-06
-4.33739e-05
4.05519e-06
-4.31802e-05
3.85787e-06
-4.2876e-05
3.64396e-06
-4.24567e-05
3.40045e-06
3.1117e-06
-4.19231e-05
-4.95103e-07
5.89535e-06
-1.41531e-06
1.09835e-05
-2.47687e-06
1.2687e-05
-3.57431e-06
1.31221e-05
-4.67789e-06
1.31972e-05
-5.78065e-06
1.31879e-05
-6.88091e-06
1.3158e-05
-7.97795e-06
1.31192e-05
-9.07118e-06
1.30736e-05
-1.01601e-05
1.30213e-05
-1.12441e-05
1.29623e-05
-1.23226e-05
1.28966e-05
-1.33951e-05
1.28243e-05
-1.4461e-05
1.27452e-05
-1.55198e-05
1.26594e-05
-1.65709e-05
1.25668e-05
-1.76137e-05
1.24674e-05
-1.86477e-05
1.23612e-05
-1.96723e-05
1.22482e-05
-2.06868e-05
1.21282e-05
-2.16908e-05
1.20014e-05
-2.26836e-05
1.18676e-05
-2.36646e-05
1.17269e-05
-2.46333e-05
1.15792e-05
-2.5589e-05
1.14244e-05
-2.6531e-05
1.12627e-05
-2.74588e-05
1.10939e-05
-2.83717e-05
1.09181e-05
-2.92691e-05
1.07352e-05
-3.01502e-05
1.05454e-05
-3.10143e-05
1.03486e-05
-3.18609e-05
1.01449e-05
-3.2689e-05
9.93431e-06
-3.3498e-05
9.71702e-06
-3.4287e-05
9.49312e-06
-3.50551e-05
9.26278e-06
-3.58016e-05
9.02622e-06
-3.65255e-05
8.78369e-06
-3.72256e-05
8.53549e-06
-3.7901e-05
8.28201e-06
-3.85504e-05
8.02367e-06
-3.91725e-05
7.76098e-06
-3.97657e-05
7.49453e-06
-4.03285e-05
7.22498e-06
-4.08588e-05
6.95307e-06
-4.13545e-05
6.6796e-06
-4.1813e-05
6.4054e-06
-4.22313e-05
6.13133e-06
-4.2606e-05
5.8582e-06
-4.29328e-05
5.58667e-06
-4.32071e-05
5.31716e-06
-4.34234e-05
5.04968e-06
-4.35754e-05
4.7836e-06
-4.36563e-05
4.51736e-06
-4.36588e-05
4.24821e-06
-4.35754e-05
3.97182e-06
-4.33995e-05
3.68195e-06
-4.31259e-05
3.37035e-06
-4.27522e-05
3.02675e-06
2.63947e-06
-4.22799e-05
-4.96907e-07
6.39226e-06
-1.42197e-06
1.19086e-05
-2.48966e-06
1.37547e-05
-3.59359e-06
1.4226e-05
-4.70373e-06
1.43074e-05
-5.81309e-06
1.42973e-05
-6.91996e-06
1.42648e-05
-8.02362e-06
1.42229e-05
-9.1235e-06
1.41735e-05
-1.0219e-05
1.41168e-05
-1.13097e-05
1.40529e-05
-1.23949e-05
1.39818e-05
-1.34741e-05
1.39035e-05
-1.45468e-05
1.38179e-05
-1.56124e-05
1.37249e-05
-1.66703e-05
1.36247e-05
-1.77199e-05
1.35171e-05
-1.87607e-05
1.34021e-05
-1.97922e-05
1.32796e-05
-2.08136e-05
1.31497e-05
-2.18246e-05
1.30123e-05
-2.28243e-05
1.28674e-05
-2.38123e-05
1.27149e-05
-2.4788e-05
1.25548e-05
-2.57507e-05
1.23871e-05
-2.66998e-05
1.22118e-05
-2.76346e-05
1.20287e-05
-2.85545e-05
1.1838e-05
-2.94588e-05
1.16396e-05
-3.03469e-05
1.14335e-05
-3.1218e-05
1.12197e-05
-3.20713e-05
1.09982e-05
-3.29062e-05
1.07692e-05
-3.37217e-05
1.05326e-05
-3.45171e-05
1.02885e-05
-3.52915e-05
1.00372e-05
-3.6044e-05
9.77865e-06
-3.67734e-05
9.51315e-06
-3.74789e-05
9.24091e-06
-3.81591e-05
8.96221e-06
-3.88128e-05
8.67737e-06
-3.94386e-05
8.38678e-06
-4.00349e-05
8.09086e-06
-4.06e-05
7.79008e-06
-4.11319e-05
7.48496e-06
-4.16283e-05
7.17603e-06
-4.20867e-05
6.86381e-06
-4.25042e-05
6.54878e-06
-4.28773e-05
6.23134e-06
-4.32023e-05
5.91168e-06
-4.34749e-05
5.58973e-06
-4.36902e-05
5.26496e-06
-4.38429e-05
4.93629e-06
-4.39273e-05
4.60183e-06
-4.39378e-05
4.25868e-06
-4.38687e-05
3.90274e-06
-4.37153e-05
3.52855e-06
-4.34742e-05
3.12926e-06
-4.31443e-05
2.69679e-06
2.22236e-06
-4.27272e-05
-4.98859e-07
6.89112e-06
-1.42919e-06
1.28389e-05
-2.50351e-06
1.4829e-05
-3.61446e-06
1.5337e-05
-4.73172e-06
1.54246e-05
-5.84822e-06
1.54138e-05
-6.96225e-06
1.53789e-05
-8.07308e-06
1.53337e-05
-9.18015e-06
1.52805e-05
-1.02829e-05
1.52196e-05
-1.13808e-05
1.51508e-05
-1.24733e-05
1.50743e-05
-1.35598e-05
1.499e-05
-1.46397e-05
1.48979e-05
-1.57126e-05
1.47978e-05
-1.67779e-05
1.46899e-05
-1.78349e-05
1.45741e-05
-1.88832e-05
1.44503e-05
-1.99221e-05
1.43185e-05
-2.0951e-05
1.41787e-05
-2.19695e-05
1.40308e-05
-2.29768e-05
1.38747e-05
-2.39724e-05
1.37105e-05
-2.49557e-05
1.35381e-05
-2.5926e-05
1.33574e-05
-2.68828e-05
1.31685e-05
-2.78253e-05
1.29712e-05
-2.87529e-05
1.27656e-05
-2.96649e-05
1.25516e-05
-3.05606e-05
1.23292e-05
-3.14394e-05
1.20984e-05
-3.23003e-05
1.18592e-05
-3.31427e-05
1.16115e-05
-3.39657e-05
1.13556e-05
-3.47684e-05
1.10913e-05
-3.55499e-05
1.08187e-05
-3.63093e-05
1.0538e-05
-3.70455e-05
1.02493e-05
-3.77574e-05
9.95278e-06
-3.84437e-05
9.64853e-06
-3.91031e-05
9.33682e-06
-3.97342e-05
9.0179e-06
-4.03354e-05
8.69203e-06
-4.09049e-05
8.35952e-06
-4.14406e-05
8.02067e-06
-4.19403e-05
7.67577e-06
-4.24016e-05
7.32507e-06
-4.28215e-05
6.96874e-06
-4.3197e-05
6.60683e-06
-4.35245e-05
6.23919e-06
-4.38001e-05
5.86535e-06
-4.40197e-05
5.48448e-06
-4.41786e-05
5.0952e-06
-4.42722e-05
4.69548e-06
-4.4296e-05
4.28249e-06
-4.42458e-05
3.85248e-06
-4.4118e-05
3.40073e-06
-4.39103e-05
2.92162e-06
-4.36223e-05
2.40878e-06
1.85553e-06
-4.32555e-05
-5.00957e-07
7.39207e-06
-1.43696e-06
1.37749e-05
-2.51842e-06
1.59105e-05
-3.63693e-06
1.64555e-05
-4.76184e-06
1.65496e-05
-5.88603e-06
1.6538e-05
-7.00776e-06
1.65006e-05
-8.12631e-06
1.64523e-05
-9.24111e-06
1.63953e-05
-1.03516e-05
1.63301e-05
-1.14573e-05
1.62565e-05
-1.25576e-05
1.61746e-05
-1.36519e-05
1.60843e-05
-1.47397e-05
1.59857e-05
-1.58205e-05
1.58786e-05
-1.68937e-05
1.57631e-05
-1.79587e-05
1.56391e-05
-1.90149e-05
1.55066e-05
-2.00619e-05
1.53654e-05
-2.10989e-05
1.52157e-05
-2.21255e-05
1.50573e-05
-2.3141e-05
1.48902e-05
-2.41448e-05
1.47143e-05
-2.51363e-05
1.45296e-05
-2.61149e-05
1.43361e-05
-2.708e-05
1.41336e-05
-2.80308e-05
1.39221e-05
-2.89668e-05
1.37016e-05
-2.98873e-05
1.3472e-05
-3.07914e-05
1.32333e-05
-3.16785e-05
1.29855e-05
-3.25478e-05
1.27285e-05
-3.33986e-05
1.24623e-05
-3.42299e-05
1.21868e-05
-3.50408e-05
1.19022e-05
-3.58305e-05
1.16084e-05
-3.65979e-05
1.13054e-05
-3.73419e-05
1.09934e-05
-3.80615e-05
1.06723e-05
-3.87552e-05
1.03423e-05
-3.94219e-05
1.00035e-05
-4.00599e-05
9.65594e-06
-4.06677e-05
9.29984e-06
-4.12435e-05
8.93531e-06
-4.17853e-05
8.56245e-06
-4.22909e-05
8.18134e-06
-4.27578e-05
7.79201e-06
-4.31835e-05
7.39437e-06
-4.35648e-05
6.98819e-06
-4.38987e-05
6.57305e-06
-4.41816e-05
6.14824e-06
-4.44098e-05
5.71269e-06
-4.45795e-05
5.2649e-06
-4.46868e-05
4.8028e-06
-4.4728e-05
4.32373e-06
-4.46999e-05
3.82433e-06
-4.45997e-05
3.30058e-06
-4.4426e-05
2.74786e-06
-4.41783e-05
2.16113e-06
1.53526e-06
-4.38581e-05
-5.03195e-07
7.89527e-06
-1.44526e-06
1.4717e-05
-2.53437e-06
1.69996e-05
-3.66097e-06
1.75821e-05
-4.79408e-06
1.76827e-05
-5.92649e-06
1.76704e-05
-7.05647e-06
1.76306e-05
-8.18328e-06
1.75791e-05
-9.30637e-06
1.75184e-05
-1.04252e-05
1.74489e-05
-1.15392e-05
1.73705e-05
-1.26478e-05
1.72832e-05
-1.37505e-05
1.71871e-05
-1.48468e-05
1.70819e-05
-1.5936e-05
1.69679e-05
-1.70177e-05
1.68448e-05
-1.80912e-05
1.67126e-05
-1.9156e-05
1.65714e-05
-2.02116e-05
1.6421e-05
-2.12573e-05
1.62614e-05
-2.22926e-05
1.60926e-05
-2.33168e-05
1.59145e-05
-2.43295e-05
1.5727e-05
-2.53299e-05
1.553e-05
-2.63174e-05
1.53236e-05
-2.72914e-05
1.51076e-05
-2.82513e-05
1.4882e-05
-2.91964e-05
1.46467e-05
-3.01259e-05
1.44016e-05
-3.10392e-05
1.41466e-05
-3.19355e-05
1.38818e-05
-3.2814e-05
1.3607e-05
-3.36739e-05
1.33222e-05
-3.45144e-05
1.30273e-05
-3.53345e-05
1.27223e-05
-3.61334e-05
1.24072e-05
-3.69098e-05
1.20819e-05
-3.76629e-05
1.17464e-05
-3.83913e-05
1.14008e-05
-3.90939e-05
1.10449e-05
-3.97693e-05
1.06788e-05
-4.04159e-05
1.03026e-05
-4.10322e-05
9.91611e-06
-4.16163e-05
9.51944e-06
-4.21663e-05
9.1125e-06
-4.26802e-05
8.69519e-06
-4.31555e-05
8.26733e-06
-4.35898e-05
7.82862e-06
-4.39802e-05
7.37864e-06
-4.43239e-05
6.91674e-06
-4.46177e-05
6.44206e-06
-4.48584e-05
5.95338e-06
-4.50427e-05
5.44916e-06
-4.51672e-05
4.92738e-06
-4.52291e-05
4.38558e-06
-4.52256e-05
3.82079e-06
-4.51546e-05
3.2296e-06
-4.50149e-05
2.60819e-06
-4.48063e-05
1.95258e-06
1.25881e-06
-4.45299e-05
-5.05571e-07
8.40084e-06
-1.45409e-06
1.56655e-05
-2.55135e-06
1.80968e-05
-3.68658e-06
1.87173e-05
-4.82843e-06
1.88245e-05
-5.96961e-06
1.88116e-05
-7.10837e-06
1.87693e-05
-8.24399e-06
1.87147e-05
-9.3759e-06
1.86503e-05
-1.05036e-05
1.85765e-05
-1.16264e-05
1.84934e-05
-1.2744e-05
1.84008e-05
-1.38556e-05
1.82987e-05
-1.49609e-05
1.81872e-05
-1.60591e-05
1.80661e-05
-1.71498e-05
1.79355e-05
-1.82324e-05
1.77952e-05
-1.93064e-05
1.76454e-05
-2.03711e-05
1.74858e-05
-2.14261e-05
1.73164e-05
-2.24707e-05
1.71372e-05
-2.35043e-05
1.69481e-05
-2.45264e-05
1.6749e-05
-2.55363e-05
1.65399e-05
-2.65334e-05
1.63207e-05
-2.7517e-05
1.60913e-05
-2.84866e-05
1.58516e-05
-2.94414e-05
1.56015e-05
-3.03808e-05
1.53409e-05
-3.1304e-05
1.50698e-05
-3.22102e-05
1.4788e-05
-3.30987e-05
1.44955e-05
-3.39687e-05
1.41922e-05
-3.48193e-05
1.38779e-05
-3.56496e-05
1.35526e-05
-3.64586e-05
1.32162e-05
-3.72452e-05
1.28686e-05
-3.80085e-05
1.25097e-05
-3.87471e-05
1.21394e-05
-3.94599e-05
1.17577e-05
-4.01455e-05
1.13644e-05
-4.08023e-05
1.09594e-05
-4.14288e-05
1.05426e-05
-4.20232e-05
1.01139e-05
-4.25836e-05
9.67296e-06
-4.31081e-05
9.21964e-06
-4.35943e-05
8.75355e-06
-4.40399e-05
8.27424e-06
-4.44424e-05
7.7811e-06
-4.4799e-05
7.27337e-06
-4.5107e-05
6.75002e-06
-4.53634e-05
6.20982e-06
-4.55654e-05
5.65118e-06
-4.57103e-05
5.0722e-06
-4.57953e-05
4.47062e-06
-4.58184e-05
3.84384e-06
-4.57777e-05
3.18894e-06
-4.56723e-05
2.50279e-06
-4.55019e-05
1.78218e-06
1.02405e-06
-4.52671e-05
-5.08079e-07
8.90892e-06
-1.46345e-06
1.66209e-05
-2.56935e-06
1.92027e-05
-3.71374e-06
1.98617e-05
-4.86486e-06
1.99756e-05
-6.01535e-06
1.99621e-05
-7.16344e-06
1.99174e-05
-8.3084e-06
1.98597e-05
-9.44968e-06
1.97916e-05
-1.05867e-05
1.97136e-05
-1.1719e-05
1.96257e-05
-1.2846e-05
1.95277e-05
-1.39672e-05
1.94198e-05
-1.50819e-05
1.93019e-05
-1.61897e-05
1.91739e-05
-1.729e-05
1.90358e-05
-1.83823e-05
1.88875e-05
-1.9466e-05
1.8729e-05
-2.05405e-05
1.85603e-05
-2.16053e-05
1.83812e-05
-2.26598e-05
1.81917e-05
-2.37033e-05
1.79917e-05
-2.47354e-05
1.77811e-05
-2.57555e-05
1.75599e-05
-2.67628e-05
1.7328e-05
-2.77567e-05
1.70852e-05
-2.87367e-05
1.68315e-05
-2.97019e-05
1.65668e-05
-3.06519e-05
1.62908e-05
-3.15857e-05
1.60036e-05
-3.25027e-05
1.5705e-05
-3.34021e-05
1.53949e-05
-3.4283e-05
1.50731e-05
-3.51446e-05
1.47395e-05
-3.5986e-05
1.4394e-05
-3.68061e-05
1.40364e-05
-3.76041e-05
1.36665e-05
-3.83787e-05
1.32843e-05
-3.91288e-05
1.28895e-05
-3.98532e-05
1.2482e-05
-4.05504e-05
1.20616e-05
-4.1219e-05
1.1628e-05
-4.18575e-05
1.11811e-05
-4.24641e-05
1.07205e-05
-4.3037e-05
1.02459e-05
-4.35743e-05
9.75691e-06
-4.40738e-05
9.25306e-06
-4.45333e-05
8.73376e-06
-4.49505e-05
8.19827e-06
-4.53228e-05
7.6457e-06
-4.56478e-05
7.07499e-06
-4.59228e-05
6.48484e-06
-4.61453e-05
5.8737e-06
-4.63129e-05
5.23978e-06
-4.64233e-05
4.58102e-06
-4.64746e-05
3.89514e-06
-4.64653e-05
3.17963e-06
-4.63944e-05
2.4319e-06
-4.62616e-05
1.64938e-06
8.29676e-07
-4.60672e-05
-5.10714e-07
9.41963e-06
-1.47333e-06
1.75835e-05
-2.58837e-06
2.03178e-05
-3.74244e-06
2.10158e-05
-4.90337e-06
2.11366e-05
-6.0637e-06
2.11224e-05
-7.22165e-06
2.10754e-05
-8.3765e-06
2.10145e-05
-9.52769e-06
2.09428e-05
-1.06747e-05
2.08606e-05
-1.18169e-05
2.07679e-05
-1.29539e-05
2.06647e-05
-1.40851e-05
2.0551e-05
-1.52099e-05
2.04267e-05
-1.63278e-05
2.02918e-05
-1.74383e-05
2.01463e-05
-1.85408e-05
1.999e-05
-1.96347e-05
1.9823e-05
-2.07196e-05
1.96451e-05
-2.17948e-05
1.94564e-05
-2.28597e-05
1.92566e-05
-2.39139e-05
1.90458e-05
-2.49566e-05
1.88239e-05
-2.59874e-05
1.85907e-05
-2.70055e-05
1.83461e-05
-2.80104e-05
1.80901e-05
-2.90014e-05
1.78225e-05
-2.99778e-05
1.75432e-05
-3.0939e-05
1.7252e-05
-3.18843e-05
1.69489e-05
-3.28128e-05
1.66336e-05
-3.37238e-05
1.63059e-05
-3.46165e-05
1.59658e-05
-3.54901e-05
1.56131e-05
-3.63435e-05
1.52475e-05
-3.7176e-05
1.48688e-05
-3.79863e-05
1.44769e-05
-3.87735e-05
1.40715e-05
-3.95363e-05
1.36524e-05
-4.02736e-05
1.32193e-05
-4.0984e-05
1.27719e-05
-4.1666e-05
1.231e-05