/*--------------------------------*- C++ -*----------------------------------*\
  =========                 |
  \\      /  F ield         | OpenFOAM: The Open Source CFD Toolbox
   \\    /   O peration     | Website:  https://openfoam.org
    \\  /    A nd           | Version:  8
     \\/     M anipulation  |
\*---------------------------------------------------------------------------*/
FoamFile
{
    version     2.0;
    format      ascii;
    class       volVectorField;
    location    "22";
    object      U;
}
// * * * * * * * * * * * * * * * * * * * * * * * * * * * * * * * * * * * * * //

dimensions      [0 1 -1 0 0 0 0];

internalField   nonuniform List<vector> 
11600
(
(-2.33524e-06 2.27833e-06 0)
(-2.95904e-05 1.06098e-05 0)
(-7.62682e-05 1.34404e-05 0)
(-0.000122193 1.40699e-05 0)
(-0.000170263 1.40472e-05 0)
(-0.000217969 1.39581e-05 0)
(-0.00026553 1.39095e-05 0)
(-0.000312995 1.3887e-05 0)
(-0.000360358 1.38759e-05 0)
(-0.000407611 1.38689e-05 0)
(-0.000454743 1.38628e-05 0)
(-0.000501742 1.3856e-05 0)
(-0.000548591 1.38477e-05 0)
(-0.000595276 1.38375e-05 0)
(-0.000641779 1.38252e-05 0)
(-0.000688083 1.38103e-05 0)
(-0.000734171 1.37927e-05 0)
(-0.000780026 1.37721e-05 0)
(-0.000825627 1.37482e-05 0)
(-0.000870957 1.37207e-05 0)
(-0.000915997 1.36895e-05 0)
(-0.000960726 1.36541e-05 0)
(-0.00100512 1.36143e-05 0)
(-0.00104917 1.35698e-05 0)
(-0.00109285 1.35203e-05 0)
(-0.00113613 1.34656e-05 0)
(-0.00117899 1.34053e-05 0)
(-0.00122142 1.33392e-05 0)
(-0.00126339 1.32671e-05 0)
(-0.00130488 1.31889e-05 0)
(-0.00134586 1.31042e-05 0)
(-0.00138632 1.30131e-05 0)
(-0.00142624 1.29156e-05 0)
(-0.00146559 1.28117e-05 0)
(-0.00150436 1.27016e-05 0)
(-0.00154253 1.25858e-05 0)
(-0.00158008 1.24647e-05 0)
(-0.00161701 1.23391e-05 0)
(-0.0016533 1.22103e-05 0)
(-0.00168896 1.20797e-05 0)
(-0.00172399 1.19493e-05 0)
(-0.00175841 1.18219e-05 0)
(-0.00179224 1.17009e-05 0)
(-0.00182552 1.15908e-05 0)
(-0.00185832 1.14977e-05 0)
(-0.00189071 1.14291e-05 0)
(-0.00192283 1.13949e-05 0)
(-0.00195485 1.14075e-05 0)
(-0.00198699 1.14825e-05 0)
(-0.00201958 1.1638e-05 0)
(-0.00205306 1.18938e-05 0)
(-0.00208805 1.22669e-05 0)
(-0.00212544 1.27655e-05 0)
(-0.00216656 1.33783e-05 0)
(-0.00221386 1.41332e-05 0)
(-0.00226962 1.57839e-05 0)
(-0.00233133 2.21987e-05 0)
(-0.00248274 4.56286e-05 0)
(-0.00254157 0.000219129 0)
(-0.00336229 0.000757851 0)
(-1.08202e-05 2.96553e-05 0)
(-6.67249e-05 6.62804e-05 0)
(-0.000152509 7.91064e-05 0)
(-0.000237565 8.24926e-05 0)
(-0.000326136 8.29799e-05 0)
(-0.000414454 8.28756e-05 0)
(-0.000502599 8.27002e-05 0)
(-0.000590561 8.25132e-05 0)
(-0.000678269 8.23105e-05 0)
(-0.000765679 8.20852e-05 0)
(-0.00085275 8.18332e-05 0)
(-0.00093944 8.15523e-05 0)
(-0.00102571 8.12411e-05 0)
(-0.00111152 8.08986e-05 0)
(-0.00119682 8.05241e-05 0)
(-0.00128158 8.01168e-05 0)
(-0.00136575 7.96762e-05 0)
(-0.00144928 7.92016e-05 0)
(-0.00153214 7.86922e-05 0)
(-0.00161429 7.81476e-05 0)
(-0.00169567 7.7567e-05 0)
(-0.00177625 7.69499e-05 0)
(-0.00185597 7.62957e-05 0)
(-0.00193481 7.56038e-05 0)
(-0.0020127 7.48739e-05 0)
(-0.00208962 7.41055e-05 0)
(-0.00216551 7.32985e-05 0)
(-0.00224033 7.24527e-05 0)
(-0.00231404 7.15682e-05 0)
(-0.0023866 7.06455e-05 0)
(-0.00245797 6.96852e-05 0)
(-0.0025281 6.86883e-05 0)
(-0.00259696 6.76565e-05 0)
(-0.00266452 6.65919e-05 0)
(-0.00273074 6.54975e-05 0)
(-0.0027956 6.43772e-05 0)
(-0.00285908 6.32361e-05 0)
(-0.00292116 6.20809e-05 0)
(-0.00298183 6.09201e-05 0)
(-0.0030411 5.97647e-05 0)
(-0.00309899 5.8629e-05 0)
(-0.00315553 5.75312e-05 0)
(-0.00321079 5.64951e-05 0)
(-0.00326484 5.55517e-05 0)
(-0.00331782 5.47417e-05 0)
(-0.00336989 5.41191e-05 0)
(-0.0034213 5.37569e-05 0)
(-0.00347238 5.37552e-05 0)
(-0.00352357 5.42533e-05 0)
(-0.00357552 5.54503e-05 0)
(-0.0036291 5.76374e-05 0)
(-0.00368559 6.12557e-05 0)
(-0.00374682 6.69975e-05 0)
(-0.0038157 7.60011e-05 0)
(-0.00389681 9.03799e-05 0)
(-0.00399546 0.000114895 0)
(-0.00412149 0.00015991 0)
(-0.00432471 0.000247743 0)
(-0.00449027 0.000524683 0)
(-0.00498456 0.000958607 0)
(-1.37869e-05 7.68722e-05 0)
(-8.01079e-05 0.000152314 0)
(-0.000180018 0.00017876 0)
(-0.000278728 0.000185898 0)
(-0.000381213 0.000187185 0)
(-0.000483377 0.000187106 0)
(-0.000585308 0.00018673 0)
(-0.000686993 0.000186249 0)
(-0.000788351 0.000185691 0)
(-0.000889324 0.000185056 0)
(-0.000989861 0.000184342 0)
(-0.00108991 0.000183547 0)
(-0.00118942 0.000182669 0)
(-0.00128834 0.000181707 0)
(-0.00138661 0.000180661 0)
(-0.00148419 0.000179529 0)
(-0.00158102 0.000178311 0)
(-0.00167704 0.000177005 0)
(-0.00177221 0.00017561 0)
(-0.00186648 0.000174127 0)
(-0.00195978 0.000172555 0)
(-0.00205207 0.000170892 0)
(-0.00214329 0.000169138 0)
(-0.00223339 0.000167293 0)
(-0.00232232 0.000165356 0)
(-0.00241003 0.000163329 0)
(-0.00249646 0.00016121 0)
(-0.00258156 0.000159001 0)
(-0.00266529 0.000156703 0)
(-0.00274759 0.000154318 0)
(-0.00282842 0.000151849 0)
(-0.00290773 0.000149298 0)
(-0.00298548 0.00014667 0)
(-0.00306162 0.000143971 0)
(-0.00313614 0.00014121 0)
(-0.00320898 0.000138394 0)
(-0.00328013 0.000135538 0)
(-0.00334958 0.000132657 0)
(-0.00341731 0.00012977 0)
(-0.00348333 0.000126904 0)
(-0.00354765 0.00012409 0)
(-0.00361033 0.000121371 0)
(-0.00367141 0.000118799 0)
(-0.00373099 0.000116445 0)
(-0.00378921 0.000114397 0)
(-0.00384624 0.000112778 0)
(-0.00390232 0.000111747 0)
(-0.00395781 0.000111526 0)
(-0.00401313 0.000112418 0)
(-0.00406889 0.00011486 0)
(-0.00412592 0.000119483 0)
(-0.00418529 0.000127239 0)
(-0.00424853 0.000139601 0)
(-0.00431777 0.00015894 0)
(-0.00439585 0.000189365 0)
(-0.00448564 0.000238403 0)
(-0.00459268 0.000318935 0)
(-0.00473125 0.000457946 0)
(-0.00482464 0.000739386 0)
(-0.00500325 0.00112599 0)
(-1.44844e-05 0.000123603 0)
(-8.38614e-05 0.000238054 0)
(-0.000187948 0.000277704 0)
(-0.000290415 0.000288196 0)
(-0.000396736 0.000290072 0)
(-0.00050268 0.000289924 0)
(-0.000608371 0.00028931 0)
(-0.000713804 0.00028852 0)
(-0.000818891 0.000287595 0)
(-0.000923571 0.00028654 0)
(-0.00102779 0.000285353 0)
(-0.00113148 0.000284031 0)
(-0.00123461 0.000282573 0)
(-0.0013371 0.000280979 0)
(-0.0014389 0.000279246 0)
(-0.00153996 0.000277374 0)
(-0.00164023 0.000275362 0)
(-0.00173964 0.000273208 0)
(-0.00183815 0.000270913 0)
(-0.00193569 0.000268475 0)
(-0.00203221 0.000265893 0)
(-0.00212765 0.000263167 0)
(-0.00222196 0.000260297 0)
(-0.00231508 0.000257283 0)
(-0.00240697 0.000254124 0)
(-0.00249755 0.000250821 0)
(-0.00258678 0.000247375 0)
(-0.00267461 0.000243788 0)
(-0.00276098 0.000240062 0)
(-0.00284585 0.0002362 0)
(-0.00292915 0.000232207 0)
(-0.00301085 0.000228088 0)
(-0.0030909 0.00022385 0)
(-0.00316925 0.000219504 0)
(-0.00324587 0.00021506 0)
(-0.00332073 0.000210534 0)
(-0.00339379 0.000205945 0)
(-0.00346504 0.000201317 0)
(-0.00353446 0.00019668 0)
(-0.00360205 0.000192073 0)
(-0.00366782 0.000187543 0)
(-0.00373181 0.000183153 0)
(-0.00379406 0.000178981 0)
(-0.00385465 0.000175127 0)
(-0.00391369 0.000171724 0)
(-0.00397132 0.000168942 0)
(-0.00402776 0.000167009 0)
(-0.00408327 0.000166231 0)
(-0.0041382 0.000167024 0)
(-0.00419302 0.000169965 0)
(-0.00424832 0.000175867 0)
(-0.00430486 0.000185898 0)
(-0.00436358 0.000201776 0)
(-0.00442561 0.00022608 0)
(-0.00449204 0.000262854 0)
(-0.00456325 0.000318501 0)
(-0.00463932 0.000402662 0)
(-0.00471613 0.000533108 0)
(-0.00475075 0.000746331 0)
(-0.00476569 0.00100651 0)
(-1.44854e-05 0.000172629 0)
(-8.46048e-05 0.000327603 0)
(-0.00018988 0.000380763 0)
(-0.000293322 0.000394683 0)
(-0.000400663 0.000397177 0)
(-0.000507586 0.000396972 0)
(-0.000614244 0.00039612 0)
(-0.000720637 0.000395009 0)
(-0.000826679 0.0003937 0)
(-0.000932309 0.000392202 0)
(-0.00103747 0.000390514 0)
(-0.0011421 0.000388635 0)
(-0.00124615 0.000386563 0)
(-0.00134956 0.000384298 0)
(-0.00145228 0.000381838 0)
(-0.00155425 0.000379182 0)
(-0.0016554 0.000376329 0)
(-0.00175569 0.000373278 0)
(-0.00185507 0.000370029 0)
(-0.00195346 0.00036658 0)
(-0.00205082 0.000362931 0)
(-0.00214709 0.000359081 0)
(-0.00224221 0.000355031 0)
(-0.00233612 0.000350779 0)
(-0.00242878 0.000346328 0)
(-0.00252012 0.000341677 0)
(-0.0026101 0.000336829 0)
(-0.00269864 0.000331785 0)
(-0.00278571 0.00032655 0)
(-0.00287125 0.000321127 0)
(-0.0029552 0.000315523 0)
(-0.00303752 0.000309745 0)
(-0.00311816 0.000303803 0)
(-0.00319707 0.000297711 0)
(-0.00327422 0.000291483 0)
(-0.00334956 0.00028514 0)
(-0.00342306 0.000278706 0)
(-0.0034947 0.000272214 0)
(-0.00356445 0.000265703 0)
(-0.0036323 0.000259221 0)
(-0.00369826 0.000252832 0)
(-0.00376233 0.000246614 0)
(-0.00382455 0.000240665 0)
(-0.00388495 0.000235114 0)
(-0.00394363 0.000230122 0)
(-0.00400066 0.000225903 0)
(-0.00405618 0.000222731 0)
(-0.00411037 0.000220973 0)
(-0.00416343 0.000221118 0)
(-0.00421562 0.000223825 0)
(-0.00426723 0.000230003 0)
(-0.00431855 0.000240907 0)
(-0.00436983 0.000258301 0)
(-0.00442116 0.000284683 0)
(-0.00447208 0.000323632 0)
(-0.00452105 0.000380149 0)
(-0.00456492 0.000460897 0)
(-0.00459524 0.00057572 0)
(-0.00458813 0.000735944 0)
(-0.00453868 0.000921655 0)
(-1.44023e-05 0.000221416 0)
(-8.47402e-05 0.000417234 0)
(-0.000190472 0.000483918 0)
(-0.000294282 0.000501237 0)
(-0.000402026 0.000504313 0)
(-0.000509326 0.000504027 0)
(-0.000616354 0.000502927 0)
(-0.000723114 0.000501492 0)
(-0.000829522 0.0004998 0)
(-0.000935515 0.00049786 0)
(-0.00104104 0.000495674 0)
(-0.00114604 0.000493239 0)
(-0.00125045 0.000490556 0)
(-0.00135422 0.000487622 0)
(-0.0014573 0.000484438 0)
(-0.00155962 0.000481001 0)
(-0.00166114 0.00047731 0)
(-0.00176179 0.000473365 0)
(-0.00186151 0.000469165 0)
(-0.00196026 0.000464708 0)
(-0.00205797 0.000459994 0)
(-0.00215458 0.000455023 0)
(-0.00225005 0.000449795 0)
(-0.00234431 0.000444309 0)
(-0.0024373 0.000438567 0)
(-0.00252898 0.000432569 0)
(-0.00261927 0.000426319 0)
(-0.00270814 0.000419819 0)
(-0.00279552 0.000413072 0)
(-0.00288136 0.000406086 0)
(-0.0029656 0.000398866 0)
(-0.0030482 0.000391423 0)
(-0.00312909 0.000383769 0)
(-0.00320825 0.000375918 0)
(-0.00328561 0.000367889 0)
(-0.00336114 0.000359707 0)
(-0.0034348 0.000351401 0)
(-0.00350654 0.000343009 0)
(-0.00357635 0.000334577 0)
(-0.0036442 0.000326161 0)
(-0.00371007 0.000317836 0)
(-0.00377395 0.00030969 0)
(-0.00383586 0.000301838 0)
(-0.00389579 0.000294423 0)
(-0.00395379 0.000287628 0)
(-0.00400989 0.000281685 0)
(-0.00406414 0.000276893 0)
(-0.0041166 0.000273639 0)
(-0.00416736 0.000272428 0)
(-0.00421645 0.00027392 0)
(-0.0042639 0.000278986 0)
(-0.00430963 0.000288777 0)
(-0.00435338 0.000304816 0)
(-0.00439453 0.000329106 0)
(-0.0044318 0.000364254 0)
(-0.00446275 0.000413477 0)
(-0.00448323 0.000480468 0)
(-0.00448531 0.000569349 0)
(-0.00445503 0.000681639 0)
(-0.00438284 0.000805874 0)
(-1.43574e-05 0.000270184 0)
(-8.4842e-05 0.00050705 0)
(-0.000190888 0.000587298 0)
(-0.000294984 0.000608024 0)
(-0.000403046 0.000611676 0)
(-0.00051065 0.000611304 0)
(-0.000617979 0.000609952 0)
(-0.000725038 0.000608192 0)
(-0.000831744 0.000606116 0)
(-0.000938036 0.000603735 0)
(-0.00104386 0.00060105 0)
(-0.00114915 0.000598061 0)
(-0.00125387 0.000594767 0)
(-0.00135794 0.000591166 0)
(-0.00146132 0.000587258 0)
(-0.00156395 0.00058304 0)
(-0.00166577 0.000578513 0)
(-0.00176672 0.000573674 0)
(-0.00186675 0.000568523 0)
(-0.0019658 0.000563058 0)
(-0.00206381 0.00055728 0)
(-0.00216074 0.000551188 0)
(-0.0022565 0.00054478 0)
(-0.00235107 0.000538059 0)
(-0.00244436 0.000531025 0)
(-0.00253633 0.000523678 0)
(-0.00262693 0.000516023 0)
(-0.00271608 0.000508061 0)
(-0.00280375 0.000499798 0)
(-0.00288986 0.00049124 0)
(-0.00297437 0.000482396 0)
(-0.00305722 0.000473275 0)
(-0.00313836 0.000463892 0)
(-0.00321774 0.000454263 0)
(-0.0032953 0.00044441 0)
(-0.003371 0.000434359 0)
(-0.00344478 0.000424144 0)
(-0.00351662 0.000413805 0)
(-0.00358646 0.000403393 0)
(-0.00365427 0.000392971 0)
(-0.00372001 0.000382618 0)
(-0.00378367 0.00037243 0)
(-0.0038452 0.000362529 0)
(-0.0039046 0.000353066 0)
(-0.00396185 0.000344229 0)
(-0.00401693 0.000336257 0)
(-0.00406981 0.000329449 0)
(-0.00412046 0.000324185 0)
(-0.00416883 0.000320944 0)
(-0.00421479 0.000320337 0)
(-0.00425816 0.000323137 0)
(-0.00429858 0.000330317 0)
(-0.00433546 0.00034309 0)
(-0.00436781 0.000362938 0)
(-0.00439399 0.000391591 0)
(-0.00441143 0.000430904 0)
(-0.00441618 0.00048256 0)
(-0.00440213 0.000547529 0)
(-0.00436072 0.000623968 0)
(-0.00428477 0.00070406 0)
(-1.43405e-05 0.000319007 0)
(-8.49871e-05 0.00059712 0)
(-0.000191353 0.000690992 0)
(-0.000295764 0.000715149 0)
(-0.000404169 0.000719379 0)
(-0.000512111 0.000718918 0)
(-0.000619775 0.000717312 0)
(-0.000727168 0.000715226 0)
(-0.000834209 0.000712765 0)
(-0.000940835 0.000709943 0)
(-0.00104699 0.000706761 0)
(-0.00115263 0.000703219 0)
(-0.00125768 0.000699314 0)
(-0.00136209 0.000695047 0)
(-0.00146581 0.000690416 0)
(-0.00156878 0.000685418 0)
(-0.00167094 0.000680054 0)
(-0.00177223 0.000674322 0)
(-0.00187261 0.000668221 0)
(-0.001972 0.000661749 0)
(-0.00207036 0.000654906 0)
(-0.00216763 0.000647691 0)
(-0.00226374 0.000640104 0)
(-0.00235865 0.000632146 0)
(-0.00245229 0.000623817 0)
(-0.0025446 0.000615118 0)
(-0.00263553 0.000606053 0)
(-0.00272502 0.000596625 0)
(-0.00281301 0.000586838 0)
(-0.00289945 0.0005767 0)
(-0.00298427 0.000566219 0)
(-0.00306742 0.000555406 0)
(-0.00314884 0.000544276 0)
(-0.00322848 0.000532847 0)
(-0.00330628 0.000521141 0)
(-0.00338218 0.000509187 0)
(-0.00345613 0.00049702 0)
(-0.00352809 0.000484681 0)
(-0.00359799 0.000472225 0)
(-0.00366578 0.000459716 0)
(-0.00373143 0.000447235 0)
(-0.00379487 0.000434881 0)
(-0.00385606 0.000422777 0)
(-0.00391493 0.000411071 0)
(-0.00397145 0.000399949 0)
(-0.00402552 0.000389642 0)
(-0.00407707 0.00038043 0)
(-0.00412598 0.000372664 0)
(-0.00417208 0.000366771 0)
(-0.00421514 0.000363279 0)
(-0.00425481 0.000362824 0)
(-0.00429058 0.000366171 0)
(-0.00432168 0.000374209 0)
(-0.00434697 0.000387929 0)
(-0.0043648 0.000408353 0)
(-0.00437281 0.000436362 0)
(-0.00436773 0.000472387 0)
(-0.00434518 0.000515905 0)
(-0.00429994 0.000564254 0)
(-0.00422764 0.000611505 0)
(-1.43375e-05 0.000367909 0)
(-8.51755e-05 0.000687456 0)
(-0.000191902 0.000795022 0)
(-0.000296677 0.000822634 0)
(-0.000405473 0.000827447 0)
(-0.000513801 0.000826897 0)
(-0.000621853 0.000825036 0)
(-0.000729633 0.000822623 0)
(-0.000837061 0.000819778 0)
(-0.000944076 0.000816516 0)
(-0.00105062 0.000812838 0)
(-0.00115664 0.000808743 0)
(-0.00126209 0.000804229 0)
(-0.00136689 0.000799297 0)
(-0.001471 0.000793943 0)
(-0.00157437 0.000788168 0)
(-0.00167692 0.000781969 0)
(-0.00177862 0.000775344 0)
(-0.00187939 0.000768293 0)
(-0.00197919 0.000760815 0)
(-0.00207795 0.000752907 0)
(-0.00217561 0.000744571 0)
(-0.00227213 0.000735804 0)
(-0.00236743 0.000726607 0)
(-0.00246147 0.000716982 0)
(-0.00255418 0.000706929 0)
(-0.00264551 0.00069645 0)
(-0.00273539 0.000685549 0)
(-0.00282377 0.000674232 0)
(-0.00291058 0.000662504 0)
(-0.00299576 0.000650375 0)
(-0.00307927 0.000637855 0)
(-0.00316102 0.000624961 0)
(-0.00324098 0.000611708 0)
(-0.00331906 0.000598121 0)
(-0.00339522 0.000584228 0)
(-0.0034694 0.000570064 0)
(-0.00354152 0.000555672 0)
(-0.00361153 0.000541105 0)
(-0.00367937 0.000526428 0)
(-0.00374496 0.000511719 0)
(-0.00380824 0.000497074 0)
(-0.00386913 0.000482612 0)
(-0.00392755 0.000468475 0)
(-0.0039834 0.000454836 0)
(-0.00403656 0.000441905 0)
(-0.0040869 0.000429935 0)
(-0.00413424 0.000419231 0)
(-0.00417833 0.000410156 0)
(-0.00421886 0.000403137 0)
(-0.00425539 0.000398671 0)
(-0.00428732 0.000397314 0)
(-0.00431383 0.000399668 0)
(-0.0043338 0.000406329 0)
(-0.00434569 0.000417801 0)
(-0.00434754 0.00043433 0)
(-0.0043368 0.000455662 0)
(-0.00431045 0.000480673 0)
(-0.00426533 0.000506764 0)
(-0.00419904 0.000529481 0)
(-1.43417e-05 0.000416912 0)
(-8.54017e-05 0.000778092 0)
(-0.000192539 0.000899433 0)
(-0.000297729 0.000930526 0)
(-0.000406968 0.000935926 0)
(-0.000515737 0.000935288 0)
(-0.00062423 0.000933173 0)
(-0.000732452 0.000930434 0)
(-0.000840323 0.000927206 0)
(-0.000947781 0.000923504 0)
(-0.00105477 0.00091933 0)
(-0.00116124 0.000914683 0)
(-0.00126713 0.000909563 0)
(-0.00137238 0.000903966 0)
(-0.00147694 0.000897892 0)
(-0.00158076 0.00089134 0)
(-0.00168377 0.000884307 0)
(-0.00178592 0.000876791 0)
(-0.00188715 0.000868792 0)
(-0.0019874 0.000860308 0)
(-0.00208662 0.000851337 0)
(-0.00218474 0.000841879 0)
(-0.00228172 0.000831932 0)
(-0.00237748 0.000821497 0)
(-0.00247198 0.000810573 0)
(-0.00256514 0.000799163 0)
(-0.00265692 0.000787267 0)
(-0.00274725 0.000774889 0)
(-0.00283607 0.000762034 0)
(-0.00292332 0.000748708 0)
(-0.00300893 0.000734919 0)
(-0.00309285 0.000720678 0)
(-0.003175 0.000706 0)
(-0.00325533 0.000690901 0)
(-0.00333377 0.000675404 0)
(-0.00341025 0.000659537 0)
(-0.0034847 0.000643333 0)
(-0.00355706 0.000626834 0)
(-0.00362725 0.00061009 0)
(-0.00369518 0.000593163 0)
(-0.0037608 0.000576128 0)
(-0.00382399 0.000559075 0)
(-0.00388467 0.000542111 0)
(-0.00394272 0.000525367 0)
(-0.00399803 0.000508998 0)
(-0.00405043 0.000493187 0)
(-0.00409976 0.000478152 0)
(-0.00414577 0.000464146 0)
(-0.00418819 0.000451461 0)
(-0.00422664 0.000440426 0)
(-0.00426065 0.000431402 0)
(-0.0042896 0.000424767 0)
(-0.00431268 0.000420887 0)
(-0.00432886 0.000420063 0)
(-0.00433682 0.000422447 0)
(-0.00433497 0.000427912 0)
(-0.00432141 0.000435876 0)
(-0.0042941 0.000445066 0)
(-0.00425116 0.000453231 0)
(-0.00419135 0.000457072 0)
(-1.43499e-05 0.000466038 0)
(-8.5662e-05 0.00086907 0)
(-0.000193262 0.00100428 0)
(-0.000298919 0.00103888 0)
(-0.000408654 0.00104487 0)
(-0.000517919 0.00104415 0)
(-0.000626907 0.00104178 0)
(-0.000735627 0.00103872 0)
(-0.000843996 0.0010351 0)
(-0.000951952 0.00103096 0)
(-0.00105944 0.00102629 0)
(-0.00116641 0.0010211 0)
(-0.0012728 0.00101537 0)
(-0.00137856 0.00100911 0)
(-0.00148363 0.00100232 0)
(-0.00158795 0.000994992 0)
(-0.00169147 0.000987127 0)
(-0.00179413 0.000978722 0)
(-0.00189588 0.000969776 0)
(-0.00199664 0.000960288 0)
(-0.00209638 0.000950254 0)
(-0.00219502 0.000939675 0)
(-0.00229251 0.000928548 0)
(-0.00238879 0.000916874 0)
(-0.00248381 0.000904651 0)
(-0.00257749 0.000891881 0)
(-0.00266978 0.000878565 0)
(-0.00276062 0.000864706 0)
(-0.00284995 0.000850307 0)
(-0.00293769 0.000835374 0)
(-0.0030238 0.000819914 0)
(-0.00310819 0.000803937 0)
(-0.0031908 0.000787457 0)
(-0.00327157 0.000770489 0)
(-0.00335043 0.000753055 0)
(-0.0034273 0.000735179 0)
(-0.0035021 0.000716892 0)
(-0.00357477 0.000698235 0)
(-0.00364521 0.000679252 0)
(-0.00371333 0.000660001 0)
(-0.00377905 0.000640548 0)
(-0.00384226 0.000620976 0)
(-0.00390284 0.00060138 0)
(-0.00396066 0.000581873 0)
(-0.00401558 0.000562588 0)
(-0.00406741 0.00054368 0)
(-0.00411595 0.000525327 0)
(-0.00416093 0.000507729 0)
(-0.00420205 0.000491109 0)
(-0.00423892 0.000475704 0)
(-0.00427105 0.000461761 0)
(-0.00429784 0.000449508 0)
(-0.00431854 0.000439132 0)
(-0.00433224 0.000430728 0)
(-0.00433785 0.000424225 0)
(-0.00433411 0.000419299 0)
(-0.00431965 0.000415246 0)
(-0.0042931 0.000410851 0)
(-0.00425333 0.000404272 0)
(-0.00419976 0.000393085 0)
(-1.43605e-05 0.000515304 0)
(-8.59543e-05 0.000960432 0)
(-0.000194068 0.0011096 0)
(-0.000300245 0.00114774 0)
(-0.000410532 0.00115434 0)
(-0.000520346 0.00115353 0)
(-0.000629885 0.00115091 0)
(-0.000739157 0.00114752 0)
(-0.000848079 0.00114353 0)
(-0.00095659 0.00113895 0)
(-0.00106464 0.00113379 0)
(-0.00117216 0.00112804 0)
(-0.00127911 0.00112171 0)
(-0.00138543 0.00111479 0)
(-0.00149107 0.00110728 0)
(-0.00159595 0.00109918 0)
(-0.00170004 0.00109049 0)
(-0.00180327 0.00108119 0)
(-0.00190558 0.0010713 0)
(-0.00200692 0.00106081 0)
(-0.00210723 0.00104972 0)
(-0.00220645 0.00103802 0)
(-0.00230452 0.00102571 0)
(-0.00240138 0.0010128 0)
(-0.00249697 0.000999276 0)
(-0.00259123 0.000985145 0)
(-0.0026841 0.000970407 0)
(-0.00277551 0.000955061 0)
(-0.0028654 0.000939113 0)
(-0.00295371 0.000922565 0)
(-0.00304037 0.000905424 0)
(-0.0031253 0.000887699 0)
(-0.00320845 0.0008694 0)
(-0.00328973 0.000850542 0)
(-0.00336908 0.000831144 0)
(-0.00344641 0.000811227 0)
(-0.00352165 0.00079082 0)
(-0.0035947 0.000769957 0)
(-0.00366548 0.000748678 0)
(-0.00373389 0.000727034 0)
(-0.00379982 0.000705083 0)
(-0.00386316 0.000682895 0)
(-0.00392377 0.000660551 0)
(-0.00398152 0.000638147 0)
(-0.00403622 0.000615793 0)
(-0.0040877 0.000593611 0)
(-0.00413571 0.00057174 0)
(-0.00417999 0.000550331 0)
(-0.00422021 0.000529543 0)
(-0.00425599 0.000509535 0)
(-0.00428685 0.000490456 0)
(-0.00431223 0.000472421 0)
(-0.00433146 0.000455487 0)
(-0.00434376 0.000439611 0)
(-0.00434825 0.000424596 0)
(-0.00434395 0.000410024 0)
(-0.00432986 0.000395186 0)
(-0.00430508 0.000379009 0)
(-0.00426892 0.000360034 0)
(-0.00422116 0.000336465 0)
(-1.4373e-05 0.000564727 0)
(-8.62775e-05 0.00105222 0)
(-0.000194957 0.00121547 0)
(-0.000301707 0.00125717 0)
(-0.000412599 0.00126438 0)
(-0.000523018 0.00126349 0)
(-0.000633162 0.00126062 0)
(-0.000743041 0.00125691 0)
(-0.000852571 0.00125253 0)
(-0.000961692 0.00124752 0)
(-0.00107035 0.00124187 0)
(-0.00117849 0.00123557 0)
(-0.00128606 0.00122864 0)
(-0.00139299 0.00122106 0)
(-0.00149924 0.00121284 0)
(-0.00160475 0.00120397 0)
(-0.00170946 0.00119444 0)
(-0.00181332 0.00118426 0)
(-0.00191626 0.00117343 0)
(-0.00201823 0.00116194 0)
(-0.00211917 0.00114978 0)
(-0.00221902 0.00113697 0)
(-0.00231773 0.00112348 0)
(-0.00241523 0.00110933 0)
(-0.00251146 0.00109451 0)
(-0.00260636 0.00107902 0)
(-0.00269987 0.00106285 0)
(-0.00279192 0.00104602 0)
(-0.00288245 0.00102852 0)
(-0.00297138 0.00101035 0)
(-0.00305866 0.000991517 0)
(-0.00314421 0.000972032 0)
(-0.00322796 0.0009519 0)
(-0.00330983 0.000931134 0)
(-0.00338975 0.000909749 0)
(-0.00346762 0.000887764 0)
(-0.00354337 0.000865202 0)
(-0.00361691 0.000842091 0)
(-0.00368813 0.000818466 0)
(-0.00375693 0.00079437 0)
(-0.00382319 0.000769849 0)
(-0.00388679 0.000744963 0)
(-0.00394759 0.000719777 0)
(-0.00400542 0.000694368 0)
(-0.00406011 0.000668819 0)
(-0.00411146 0.000643226 0)
(-0.00415922 0.000617689 0)
(-0.00420313 0.000592315 0)
(-0.00424285 0.000567205 0)
(-0.00427801 0.000542455 0)
(-0.00430816 0.000518136 0)
(-0.00433281 0.00049428 0)
(-0.00435135 0.000470854 0)
(-0.00436313 0.000447728 0)
(-0.00436744 0.000424641 0)
(-0.00436352 0.00040115 0)
(-0.00435066 0.000376596 0)
(-0.00432825 0.000350074 0)
(-0.00429587 0.000320433 0)
(-0.00425347 0.000286332 0)
(-1.43868e-05 0.000614323 0)
(-8.66307e-05 0.00114447 0)
(-0.000195928 0.00132191 0)
(-0.000303301 0.00136723 0)
(-0.000414855 0.00137505 0)
(-0.000525932 0.00137408 0)
(-0.000636737 0.00137096 0)
(-0.000747277 0.00136693 0)
(-0.00085747 0.00136217 0)
(-0.000967256 0.00135673 0)
(-0.00107658 0.00135058 0)
(-0.00118539 0.00134375 0)
(-0.00129363 0.00133621 0)
(-0.00140124 0.00132798 0)
(-0.00150816 0.00131904 0)
(-0.00161435 0.0013094 0)
(-0.00171974 0.00129905 0)
(-0.00182428 0.00128799 0)
(-0.00192791 0.00127622 0)
(-0.00203057 0.00126373 0)
(-0.0021322 0.00125052 0)
(-0.00223275 0.00123658 0)
(-0.00233215 0.00122192 0)
(-0.00243035 0.00120653 0)
(-0.00252728 0.00119041 0)
(-0.00262289 0.00117356 0)
(-0.0027171 0.00115597 0)
(-0.00280985 0.00113765 0)
(-0.00290108 0.00111859 0)
(-0.00299071 0.00109879 0)
(-0.00307868 0.00107826 0)
(-0.00316492 0.00105701 0)
(-0.00324935 0.00103503 0)
(-0.00333188 0.00101234 0)
(-0.00341245 0.000988953 0)
(-0.00349096 0.000964875 0)
(-0.00356732 0.000940129 0)
(-0.00364143 0.000914736 0)
(-0.0037132 0.000888724 0)
(-0.00378251 0.000862125 0)
(-0.00384923 0.000834978 0)
(-0.00391323 0.000807328 0)
(-0.00397437 0.000779224 0)
(-0.00403248 0.000750723 0)
(-0.00408736 0.000721888 0)
(-0.00413883 0.000692784 0)
(-0.00418662 0.000663478 0)
(-0.00423047 0.000634037 0)
(-0.00427007 0.000604518 0)
(-0.00430506 0.000574962 0)
(-0.00433502 0.000545382 0)
(-0.00435951 0.00051575 0)
(-0.00437801 0.000485974 0)
(-0.00438998 0.000455877 0)
(-0.00439483 0.00042517 0)
(-0.00439199 0.000393426 0)
(-0.00438094 0.00036006 0)
(-0.00436124 0.000324319 0)
(-0.00433267 0.000285296 0)
(-0.00429523 0.000241986 0)
(-1.44017e-05 0.000664107 0)
(-8.70132e-05 0.00123723 0)
(-0.00019698 0.001429 0)
(-0.000305029 0.00147796 0)
(-0.000417298 0.00148641 0)
(-0.000529089 0.00148536 0)
(-0.000640608 0.00148199 0)
(-0.000751865 0.00147764 0)
(-0.000862776 0.00147251 0)
(-0.000973282 0.00146663 0)
(-0.00108333 0.00146 0)
(-0.00119286 0.00145262 0)
(-0.00130182 0.00144448 0)
(-0.00141016 0.0014356 0)
(-0.00151782 0.00142595 0)
(-0.00162474 0.00141554 0)
(-0.00173087 0.00140437 0)
(-0.00183615 0.00139243 0)
(-0.00194052 0.00137972 0)
(-0.00204393 0.00136623 0)
(-0.00214632 0.00135197 0)
(-0.00224762 0.00133692 0)
(-0.00234778 0.00132109 0)
(-0.00244674 0.00130447 0)
(-0.00254444 0.00128705 0)
(-0.0026408 0.00126884 0)
(-0.00273578 0.00124982 0)
(-0.0028293 0.00123001 0)
(-0.0029213 0.00120939 0)
(-0.0030117 0.00118797 0)
(-0.00310044 0.00116574 0)
(-0.00318744 0.00114271 0)
(-0.00327262 0.00111888 0)
(-0.00335591 0.00109425 0)
(-0.00343721 0.00106884 0)
(-0.00351645 0.00104265 0)
(-0.00359351 0.0010157 0)
(-0.00366831 0.000987997 0)
(-0.00374074 0.000959565 0)
(-0.00381067 0.000930426 0)
(-0.00387799 0.000900609 0)
(-0.00394254 0.000870143 0)
(-0.00400419 0.000839065 0)
(-0.00406276 0.000807412 0)
(-0.00411805 0.000775225 0)
(-0.00416987 0.000742544 0)
(-0.00421797 0.000709407 0)
(-0.00426209 0.000675846 0)
(-0.00430192 0.00064188 0)
(-0.00433714 0.00060751 0)
(-0.00436737 0.000572706 0)
(-0.00439221 0.000537398 0)
(-0.00441122 0.000501458 0)
(-0.00442393 0.000464687 0)
(-0.00442989 0.000426794 0)
(-0.00442863 0.000387386 0)
(-0.00441977 0.000345953 0)
(-0.00440301 0.000301874 0)
(-0.0043782 0.000254437 0)
(-0.00434539 0.000202879 0)
(-1.44175e-05 0.000714093 0)
(-8.74243e-05 0.00133054 0)
(-0.000198111 0.00153678 0)
(-0.000306887 0.00158942 0)
(-0.000419927 0.0015985 0)
(-0.000532485 0.00159738 0)
(-0.000644774 0.00159376 0)
(-0.000756802 0.00158909 0)
(-0.000868486 0.00158359 0)
(-0.000979766 0.00157727 0)
(-0.00109059 0.00157016 0)
(-0.0012009 0.00156224 0)
(-0.00131065 0.00155351 0)
(-0.00141977 0.00154397 0)
(-0.00152822 0.00153362 0)
(-0.00163593 0.00152245 0)
(-0.00174285 0.00151046 0)
(-0.00184893 0.00149764 0)
(-0.0019541 0.001484 0)
(-0.00205832 0.00146952 0)
(-0.00216151 0.00145421 0)
(-0.00226363 0.00143805 0)
(-0.00236461 0.00142105 0)
(-0.00246439 0.00140319 0)
(-0.00256291 0.00138448 0)
(-0.00266011 0.00136491 0)
(-0.00275592 0.00134448 0)
(-0.00285028 0.00132317 0)
(-0.00294312 0.001301 0)
(-0.00303436 0.00127794 0)
(-0.00312394 0.00125401 0)
(-0.00321178 0.0012292 0)
(-0.0032978 0.00120352 0)
(-0.00338192 0.00117695 0)
(-0.00346405 0.00114951 0)
(-0.0035441 0.0011212 0)
(-0.00362198 0.00109202 0)
(-0.00369757 0.00106199 0)
(-0.00377077 0.00103111 0)
(-0.00384146 0.000999405 0)
(-0.00390951 0.000966886 0)
(-0.00397477 0.000933571 0)
(-0.0040371 0.00089948 0)
(-0.00409632 0.000864636 0)
(-0.00415223 0.000829057 0)
(-0.00420464 0.000792763 0)
(-0.00425332 0.000755764 0)
(-0.004298 0.000718067 0)
(-0.00433841 0.000679658 0)
(-0.00437423 0.000640508 0)
(-0.00440513 0.000600557 0)
(-0.00443076 0.000559706 0)
(-0.00445072 0.000517809 0)
(-0.00446464 0.000474659 0)
(-0.00447213 0.000429978 0)
(-0.00447283 0.000383411 0)
(-0.00446645 0.000334523 0)
(-0.00445276 0.000282802 0)
(-0.00443166 0.000227686 0)
(-0.00440321 0.000168588 0)
(-1.44339e-05 0.000764296 0)
(-8.78635e-05 0.00142443 0)
(-0.000199321 0.00164529 0)
(-0.000308877 0.00170166 0)
(-0.000422741 0.00171139 0)
(-0.000536121 0.0017102 0)
(-0.000649233 0.00170634 0)
(-0.000762086 0.00170135 0)
(-0.000874598 0.00169547 0)
(-0.000986708 0.00168873 0)
(-0.00109836 0.00168113 0)
(-0.00120951 0.00167267 0)
(-0.00132009 0.00166335 0)
(-0.00143006 0.00165316 0)
(-0.00153934 0.00164211 0)
(-0.0016479 0.00163018 0)
(-0.00175568 0.00161737 0)
(-0.00186261 0.00160368 0)
(-0.00196864 0.00158911 0)
(-0.00207372 0.00157364 0)
(-0.00217779 0.00155728 0)
(-0.00228078 0.00154002 0)
(-0.00238264 0.00152185 0)
(-0.0024833 0.00150277 0)
(-0.00258272 0.00148277 0)
(-0.00268081 0.00146185 0)
(-0.00277752 0.00144 0)
(-0.00287278 0.00141721 0)
(-0.00296653 0.00139348 0)
(-0.00305869 0.0013688 0)
(-0.00314918 0.00134317 0)
(-0.00323794 0.00131658 0)
(-0.00332488 0.00128903 0)
(-0.00340992 0.00126052 0)
(-0.00349297 0.00123104 0)
(-0.00357394 0.0012006 0)
(-0.00365272 0.00116919 0)
(-0.00372922 0.00113682 0)
(-0.00380332 0.00110349 0)
(-0.0038749 0.0010692 0)
(-0.00394382 0.00103396 0)
(-0.00400995 0.000997773 0)
(-0.00407313 0.00096065 0)
(-0.00413318 0.000922594 0)
(-0.00418993 0.000883608 0)
(-0.00424316 0.000843689 0)
(-0.00429267 0.000802828 0)
(-0.00433819 0.000761007 0)
(-0.00437948 0.00071819 0)
(-0.00441624 0.000674324 0)
(-0.00444818 0.000629327 0)
(-0.00447496 0.000583084 0)
(-0.00449627 0.00053544 0)
(-0.00451176 0.000486191 0)
(-0.00452113 0.000435078 0)
(-0.00452409 0.000381786 0)
(-0.00452038 0.000325942 0)
(-0.00450985 0.000267129 0)
(-0.00449242 0.000204898 0)
(-0.00446813 0.000138795 0)
(-1.44507e-05 0.00081473 0)
(-8.83302e-05 0.00151895 0)
(-0.000200609 0.0017546 0)
(-0.000310995 0.00181474 0)
(-0.000425738 0.00182512 0)
(-0.000539995 0.00182386 0)
(-0.000653984 0.00181976 0)
(-0.000767717 0.00181445 0)
(-0.00088111 0.0018082 0)
(-0.000994104 0.00180104 0)
(-0.00110665 0.00179296 0)
(-0.00121868 0.00178396 0)
(-0.00133016 0.00177405 0)
(-0.00144101 0.00176322 0)
(-0.0015512 0.00175147 0)
(-0.00166067 0.00173878 0)
(-0.00176935 0.00172516 0)
(-0.00187719 0.00171061 0)
(-0.00198414 0.00169511 0)
(-0.00209014 0.00167866 0)
(-0.00219513 0.00166126 0)
(-0.00229906 0.0016429 0)
(-0.00240186 0.00162357 0)
(-0.00250347 0.00160327 0)
(-0.00260384 0.00158199 0)
(-0.00270289 0.00155972 0)
(-0.00280057 0.00153646 0)
(-0.0028968 0.00151219 0)
(-0.00299153 0.00148691 0)
(-0.00308467 0.00146061 0)
(-0.00317616 0.00143328 0)
(-0.00326592 0.00140492 0)
(-0.00335386 0.00137551 0)
(-0.00343991 0.00134505 0)
(-0.00352397 0.00131354 0)
(-0.00360595 0.00128097 0)