/*--------------------------------*- C++ -*----------------------------------*\
  =========                 |
  \\      /  F ield         | OpenFOAM: The Open Source CFD Toolbox
   \\    /   O peration     | Website:  https://openfoam.org
    \\  /    A nd           | Version:  8
     \\/     M anipulation  |
\*---------------------------------------------------------------------------*/
FoamFile
{
    version     2.0;
    format      ascii;
    class       volScalarField;
    location    "55.5";
    object      p;
}
// * * * * * * * * * * * * * * * * * * * * * * * * * * * * * * * * * * * * * //

dimensions      [0 2 -2 0 0 0 0];

internalField   nonuniform List<scalar> 
116
(
2.65846e-07
-0.00111944
-0.00167529
-0.00339762
0.00131534
-0.00857193
-3.83412e-05
-0.000918258
-0.000432961
-0.0041326
-0.00168894
-0.00307535
0.0009505
-8.41533e-05
-0.000482774
-0.00310036
-0.00574417
-0.00828833
0.00168291
0.0010936
-0.00013987
-0.00340423
-0.00748021
-0.00910858
0.00187385
0.0012668
-0.000516888
-0.00441628
-0.00923637
-0.0110251
0.00118318
0.000873182
-0.00091707
-0.00438805
-0.00906171
-0.0108384
0.00136598
0.00090932
-0.000527763
-0.00386177
-0.00837928
-0.0111067
0.00036544
0.001064
0.000521523
-0.00171862
-0.00509659
-0.00749702
0.00174105
0.00108119
0.00248735
0.00055015
-0.0024721
-0.00540183
-0.00350231
0.00447398
0.0045742
0.00309233
-0.000442276
-0.00272651
0.0024546
0.0110052
0.00953074
0.0152663
-0.0021125
0.00190195
0.00509251
0.00864998
-0.00894291
-0.00625082
-0.00244964
0.000921118
-0.0101312
-0.00893393
-0.0071047
-0.00388706
-0.0114886
-0.0105446
-0.00975712
-0.00668852
-0.0116151
-0.0102482
-0.010146
-0.00663516
-0.0118693
-0.00996099
-0.0107383
-0.00336362
-0.0075899
-0.00551849
-0.00434187
0.00659076
-0.00731452
-0.00497105
-0.0027238
0.0147664
-0.00280425
0.00438477
0.018562
0.0556939
0.019092
0.0181384
0.0179661
0.021293
0.0168974
0.0170368
0.0150435
0.017313
0.0131907
0.0139014
0.011906
0.0129235
0.00961492
0.0172018
0.0103079
0.0150152
)
;

boundaryField
{
    movingWall
    {
        type            zeroGradient;
    }
    fixedWalls
    {
        type            zeroGradient;
    }
    frontAndBack
    {
        type            empty;
    }
}


// ************************************************************************* //
