/*--------------------------------*- C++ -*----------------------------------*\
  =========                 |
  \\      /  F ield         | OpenFOAM: The Open Source CFD Toolbox
   \\    /   O peration     | Website:  https://openfoam.org
    \\  /    A nd           | Version:  8
     \\/     M anipulation  |
\*---------------------------------------------------------------------------*/
FoamFile
{
    version     2.0;
    format      ascii;
    class       volScalarField;
    location    "0.258";
    object      T;
}
// * * * * * * * * * * * * * * * * * * * * * * * * * * * * * * * * * * * * * //

dimensions      [0 0 0 1 0 0 0];

internalField   nonuniform List<scalar> 
100
(
49.9157
5.93082
-4.63758
-3.66168
-1.45878
-0.348536
-0.0180042
0.0295484
0.018817
0.00597639
94.4535
49.4082
13.6055
-1.74582
-4.3749
-2.92689
-1.36845
-0.515418
-0.167588
-0.0394964
105.255
84.9442
48.8676
20.5969
6.24673
1.12961
-0.0789458
-0.167921
-0.0875665
-0.0259805
103.421
102.913
80.3713
49.2045
24.4328
10.1622
3.63176
1.13675
0.31944
0.0677364
99.8477
109.203
99.8174
70.9402
40.1181
18.6969
7.39776
2.54123
0.780958
0.178299
97.5884
110.619
109.179
83.075
49.6018
24.1454
9.90326
3.50721
1.10767
0.258273
96.5732
110.681
112.906
88.5071
54.1029
26.8351
11.1779
4.01082
1.28171
0.301578
96.202
110.559
114.179
90.5506
55.8718
27.9225
11.704
4.22213
1.35576
0.320188
96.0878
110.483
114.557
91.2165
56.4752
28.3061
11.8949
4.30076
1.38399
0.327426
96.0536
110.452
114.666
91.4188
56.6595
28.4225
11.9521
4.3239
1.39213
0.329451
)
;

boundaryField
{
    left
    {
        type            fixedValue;
        value           uniform 100;
    }
    right
    {
        type            zeroGradient;
    }
    up
    {
        type            zeroGradient;
    }
    down
    {
        type            fixedValue;
        value           uniform 0;
    }
    frontAndBack
    {
        type            empty;
    }
}


// ************************************************************************* //
