/*--------------------------------*- C++ -*----------------------------------*\
  =========                 |
  \\      /  F ield         | OpenFOAM: The Open Source CFD Toolbox
   \\    /   O peration     | Website:  https://openfoam.org
    \\  /    A nd           | Version:  8
     \\/     M anipulation  |
\*---------------------------------------------------------------------------*/
FoamFile
{
    version     2.0;
    format      ascii;
    class       surfaceScalarField;
    location    "1.61";
    object      phi;
}
// * * * * * * * * * * * * * * * * * * * * * * * * * * * * * * * * * * * * * //

dimensions      [0 3 -1 0 0 0 0];

internalField   nonuniform List<scalar> 
760
(
1.24959e-06
-8.22775e-22
1.24959e-06
3.06383e-21
1.24959e-06
3.72923e-21
1.24959e-06
2.11848e-21
1.24959e-06
5.86876e-22
1.24959e-06
-6.16448e-22
1.24959e-06
-1.18961e-21
1.24959e-06
-2.26044e-21
1.24959e-06
-2.66642e-21
1.24959e-06
-3.42906e-21
1.24959e-06
-3.84369e-21
1.24959e-06
-3.71622e-21
1.24959e-06
-3.70094e-21
1.24959e-06
-3.44853e-21
1.24959e-06
-2.7951e-21
1.24959e-06
-1.77799e-21
1.24959e-06
-4.4943e-22
1.24959e-06
1.11874e-21
1.24959e-06
2.62668e-21
2.72507e-21
3.74878e-06
1.45771e-20
3.74878e-06
1.38789e-20
3.74878e-06
1.03972e-20
3.74878e-06
5.68103e-21
3.74878e-06
7.08509e-22
3.74878e-06
-3.35343e-21
3.74878e-06
-7.04559e-21
3.74878e-06
-9.24611e-21
3.74878e-06
-1.21856e-20
3.74878e-06
-1.28739e-20
3.74878e-06
-1.33216e-20
3.74878e-06
-1.27407e-20
3.74878e-06
-1.05066e-20
3.74878e-06
-7.81829e-21
3.74878e-06
-5.01388e-21
3.74878e-06
-1.72255e-21
3.74878e-06
3.39807e-21
3.74878e-06
6.73107e-21
3.74878e-06
1.15117e-20
1.39191e-20
6.24801e-06
2.99237e-20
6.24801e-06
2.62258e-20
6.24801e-06
1.93313e-20
6.24801e-06
8.2818e-21
6.24801e-06
-1.92219e-21
6.24801e-06
-1.16024e-20
6.24801e-06
-1.79417e-20
6.24801e-06
-2.47939e-20
6.24801e-06
-2.80465e-20
6.24801e-06
-2.86648e-20
6.24801e-06
-2.61581e-20
6.24801e-06
-2.36204e-20
6.24801e-06
-1.84619e-20
6.24801e-06
-1.17628e-20
6.24801e-06
-2.87475e-21
6.24801e-06
5.75972e-21
6.24801e-06
1.33089e-20
6.24801e-06
2.19948e-20
6.24801e-06
2.71209e-20
3.10323e-20
8.74728e-06
4.75869e-20
8.74728e-06
3.73976e-20
8.74728e-06
2.37144e-20
8.74728e-06
7.51994e-21
8.74728e-06
-1.05413e-20
8.74728e-06
-2.40458e-20
8.74728e-06
-3.69637e-20
8.74728e-06
-4.29009e-20
8.74728e-06
-4.76209e-20
8.74728e-06
-4.89053e-20
8.74728e-06
-4.52426e-20
8.74728e-06
-3.62e-20
8.74728e-06
-2.53728e-20
8.74728e-06
-1.13635e-20
8.74728e-06
3.54927e-21
8.74728e-06
1.66721e-20
8.74728e-06
3.11291e-20
8.74728e-06
4.23244e-20
8.74728e-06
5.02995e-20
5.1712e-20
1.12466e-05
6.29448e-20
1.12466e-05
4.82444e-20
1.12466e-05
2.6402e-20
1.12466e-05
2.8138e-21
1.12466e-05
-2.02887e-20
1.12466e-05
-4.14954e-20
1.12466e-05
-5.52119e-20
1.12466e-05
-6.6722e-20
1.12466e-05
-6.98429e-20
1.12466e-05
-6.9374e-20
1.12466e-05
-6.07674e-20
1.12466e-05
-4.75339e-20
1.12466e-05
-2.87443e-20
1.12466e-05
-7.83006e-21
1.12466e-05
1.42491e-20
1.12466e-05
3.62045e-20
1.12466e-05
5.41092e-20
1.12466e-05
6.67322e-20
1.12466e-05
7.22859e-20
7.11238e-20
1.3746e-05
7.45174e-20
1.3746e-05
5.38541e-20
1.3746e-05
2.68566e-20
1.3746e-05
-4.35318e-21
1.3746e-05
-3.31225e-20
1.3746e-05
-5.70001e-20
1.3746e-05
-7.57513e-20
1.3746e-05
-8.6258e-20
1.3746e-05
-9.02168e-20
1.3746e-05
-8.70739e-20
1.3746e-05
-7.48112e-20
1.3746e-05
-5.5387e-20
1.3746e-05
-3.06991e-20
1.3746e-05
-1.19954e-21
1.3746e-05
2.81022e-20
1.3746e-05
5.35394e-20
1.3746e-05
7.47118e-20
1.3746e-05
8.86941e-20
1.3746e-05
9.42806e-20
8.73129e-20
1.62456e-05
8.0532e-20
1.62456e-05
5.43276e-20
1.62456e-05
2.3987e-20
1.62456e-05
-1.04292e-20
1.62456e-05
-4.17091e-20
1.62456e-05
-7.05089e-20
1.62456e-05
-9.03527e-20
1.62456e-05
-1.01422e-19
1.62456e-05
-1.05775e-19
1.62456e-05
-9.66915e-20
1.62456e-05
-8.13227e-20
1.62456e-05
-5.8912e-20
1.62456e-05
-2.88918e-20
1.62456e-05
5.96205e-21
1.62456e-05
3.66535e-20
1.62456e-05
6.64746e-20
1.62456e-05
8.98655e-20
1.62456e-05
1.05673e-19
1.62456e-05
1.05665e-19
1.00293e-19
1.87452e-05
8.37637e-20
1.87452e-05
5.41709e-20
1.87452e-05
1.85257e-20
1.87452e-05
-1.46203e-20
1.87452e-05
-4.65331e-20
1.87452e-05
-7.35148e-20
1.87452e-05
-9.53869e-20
1.87452e-05
-1.06332e-19
1.87452e-05
-1.06573e-19
1.87452e-05
-1.00182e-19
1.87452e-05
-8.33108e-20
1.87452e-05
-5.77899e-20
1.87452e-05
-2.55989e-20
1.87452e-05
8.54085e-21
1.87452e-05
4.36488e-20
1.87452e-05
7.24831e-20
1.87452e-05
9.37244e-20
1.87452e-05
1.062e-19
1.87452e-05
1.11838e-19
1.01967e-19
2.12449e-05
7.64362e-20
2.12449e-05
4.91142e-20
2.12449e-05
1.88114e-20
2.12449e-05
-1.34166e-20
2.12449e-05
-4.60711e-20
2.12449e-05
-7.03753e-20
2.12449e-05
-9.03042e-20
2.12449e-05
-1.01284e-19
2.12449e-05
-1.00752e-19
2.12449e-05
-9.24411e-20
2.12449e-05
-7.5714e-20
2.12449e-05
-5.13013e-20
2.12449e-05
-2.33352e-20
2.12449e-05
6.98391e-21
2.12449e-05
4.06102e-20
2.12449e-05
6.7934e-20
2.12449e-05
8.61929e-20
2.12449e-05
9.97842e-20
2.12449e-05
1.04689e-19
9.88919e-20
2.37448e-05
6.91147e-20
2.37448e-05
4.22149e-20
2.37448e-05
1.6496e-20
2.37448e-05
-1.21113e-20
2.37448e-05
-3.94714e-20
2.37448e-05
-6.16064e-20
2.37448e-05
-7.69353e-20
2.37448e-05
-8.42406e-20
2.37448e-05
-8.59051e-20
2.37448e-05
-7.7591e-20
2.37448e-05
-6.48927e-20
2.37448e-05
-4.10968e-20
2.37448e-05
-2.01812e-20
2.37448e-05
5.67856e-21
2.37448e-05
3.22925e-20
2.37448e-05
5.63096e-20
2.37448e-05
7.41585e-20
2.37448e-05
8.33784e-20
2.37448e-05
8.8021e-20
8.12284e-20
2.62448e-05
4.93886e-20
2.62448e-05
3.31814e-20
2.62448e-05
1.25157e-20
2.62448e-05
-8.45788e-21
2.62448e-05
-2.67076e-20
2.62448e-05
-4.43146e-20
2.62448e-05
-5.39925e-20
2.62448e-05
-6.24784e-20
2.62448e-05
-6.69796e-20
2.62448e-05
-6.05869e-20
2.62448e-05
-4.63126e-20
2.62448e-05
-3.32827e-20
2.62448e-05
-1.34566e-20
2.62448e-05
4.94737e-21
2.62448e-05
2.25323e-20
2.62448e-05
3.87219e-20
2.62448e-05
5.47637e-20
2.62448e-05
6.26403e-20
2.62448e-05
6.29554e-20
6.0854e-20
2.87449e-05
3.20595e-20
2.87449e-05
2.48938e-20
2.87449e-05
1.02373e-20
2.87449e-05
-8.67614e-21
2.87449e-05
-1.85899e-20
2.87449e-05
-2.87254e-20
2.87449e-05
-3.61105e-20
2.87449e-05
-3.85296e-20
2.87449e-05
-4.23112e-20
2.87449e-05
-4.01404e-20
2.87449e-05
-2.82612e-20
2.87449e-05
-1.73848e-20
2.87449e-05
-3.64839e-21
2.87449e-05
3.04772e-21
2.87449e-05
1.46042e-20
2.87449e-05
2.47715e-20
2.87449e-05
3.25351e-20
2.87449e-05
3.78054e-20
2.87449e-05
3.61531e-20
3.1758e-20
3.12452e-05
7.41397e-21
3.12452e-05
9.03556e-21
3.12452e-05
7.91663e-22
3.12452e-05
-5.33157e-21
3.12452e-05
-1.24722e-20
3.12452e-05
-1.59381e-20
3.12452e-05
-1.93813e-20
3.12452e-05
-2.20858e-20
3.12452e-05
-1.80735e-20
3.12452e-05
-1.54379e-20
3.12452e-05
-1.36001e-20
3.12452e-05
-6.72258e-21
3.12452e-05
1.41252e-21
3.12452e-05
6.05782e-21
3.12452e-05
1.09393e-20
3.12452e-05
1.42429e-20
3.12452e-05
1.28011e-20
3.12452e-05
1.50777e-20
3.12452e-05
1.58509e-20
1.36815e-20
3.37456e-05
-8.07662e-21
3.37456e-05
-7.19936e-21
3.37456e-05
-6.40801e-21
3.37456e-05
-4.81273e-21
3.37456e-05
-3.3712e-21
3.37456e-05
-2.79154e-21
3.37456e-05
-5.26203e-21
3.37456e-05
-2.45411e-21
3.37456e-05
-3.70832e-21
3.37456e-05
-1.6803e-21
3.37456e-05
1.9002e-21
3.37456e-05
3.79616e-21
3.37456e-05
2.34252e-21
3.37456e-05
6.0111e-21
3.37456e-05
7.06931e-21
3.37456e-05
5.03227e-21
3.37456e-05
5.55239e-21
3.37456e-05
5.2179e-21
3.37456e-05
-1.21821e-21
-8.35315e-21
3.6246e-05
-1.63001e-20
3.6246e-05
-1.27557e-20
3.6246e-05
-4.59797e-21
3.6246e-05
-2.35618e-22
3.6246e-05
-2.57193e-22
3.6246e-05
-2.55187e-21
3.6246e-05
-8.10719e-22
3.6246e-05
1.49355e-21
3.6246e-05
5.46817e-21
3.6246e-05
4.16684e-21
3.6246e-05
6.19311e-21
3.6246e-05
9.44103e-21
3.6246e-05
1.12928e-20
3.6246e-05
6.84612e-21
3.6246e-05
2.87513e-21
3.6246e-05
-1.2881e-22
3.6246e-05
-1.42213e-21
3.6246e-05
-5.90338e-21
3.6246e-05
-7.89674e-21
-9.61354e-21
3.87466e-05
-9.12178e-21
3.87466e-05
-9.38978e-21
3.87466e-05
-4.68623e-21
3.87466e-05
-9.66219e-22
3.87466e-05
-6.44099e-22
3.87466e-05
-3.47773e-21
3.87466e-05
-2.59227e-21
3.87466e-05
3.19504e-21
3.87466e-05
9.55677e-21
3.87466e-05
1.08049e-20
3.87466e-05
9.07825e-21
3.87466e-05
1.04539e-20
3.87466e-05
9.38599e-21
3.87466e-05
6.87203e-21
3.87466e-05
-2.20894e-22
3.87466e-05
-1.81967e-21
3.87466e-05
-5.5881e-21
3.87466e-05
-9.8012e-21
3.87466e-05
-1.12511e-20
-1.04525e-20
4.12473e-05
-8.29593e-21
4.12473e-05
-7.99861e-21
4.12473e-05
-4.84349e-21
4.12473e-05
-2.01588e-21
4.12473e-05
-3.77787e-23
4.12473e-05
-1.2158e-21
4.12473e-05
-1.51227e-21
4.12473e-05
1.01948e-21
4.12473e-05
6.77175e-21
4.12473e-05
8.29782e-21
4.12473e-05
7.13292e-21
4.12473e-05
4.75841e-21
4.12473e-05
7.79171e-21
4.12473e-05
1.02245e-20
4.12473e-05
6.52265e-22
4.12473e-05
-4.37869e-21
4.12473e-05
-6.62583e-21
4.12473e-05
-1.12406e-20
4.12473e-05
-1.29039e-20
-1.12806e-20
4.3748e-05
-3.78261e-21
4.3748e-05
-2.51593e-21
4.3748e-05
3.02988e-22
4.3748e-05
8.91251e-22
4.3748e-05
-3.86411e-21
4.3748e-05
-4.11786e-21
4.3748e-05
-5.92993e-21
4.3748e-05
-8.42293e-21
4.3748e-05
1.7055e-21
4.3748e-05
7.95131e-21
4.3748e-05
5.89636e-21
4.3748e-05
8.63146e-21
4.3748e-05
5.7057e-21
4.3748e-05
4.36912e-21
4.3748e-05
-2.11934e-21
4.3748e-05
-5.98331e-21
4.3748e-05
-4.45488e-21
4.3748e-05
-1.69239e-21
4.3748e-05
5.03097e-23
-2.04259e-21
4.62488e-05
3.53042e-21
4.62488e-05
-1.26946e-21
4.62488e-05
-1.43685e-22
4.62488e-05
5.90698e-21
4.62488e-05
1.8878e-23
4.62488e-05
-2.26175e-21
4.62488e-05
-5.19665e-21
4.62488e-05
-3.31032e-21
4.62488e-05
-3.48306e-21
4.62488e-05
3.022e-21
4.62488e-05
8.74215e-21
4.62488e-05
3.06722e-22
4.62488e-05
1.54711e-21
4.62488e-05
2.20651e-21
4.62488e-05
6.11233e-22
4.62488e-05
-3.79638e-21
4.62488e-05
-2.26933e-21
4.62488e-05
-2.17913e-21
4.62488e-05
-2.38721e-21
3.00689e-21
4.87496e-05
4.87496e-05
4.87496e-05
4.87496e-05
4.87496e-05
4.87496e-05
4.87496e-05
4.87496e-05
4.87496e-05
4.87496e-05
4.87496e-05
4.87496e-05
4.87496e-05
4.87496e-05
4.87496e-05
4.87496e-05
4.87496e-05
4.87496e-05
4.87496e-05
)
;

boundaryField
{
    movingWall
    {
        type            calculated;
        value           uniform 0;
    }
    fixedWalls
    {
        type            calculated;
        value           uniform 0;
    }
    left
    {
        type            cyclic;
        value           nonuniform List<scalar> 
20
(
-3.87466e-05
-3.6246e-05
-3.37456e-05
-3.12452e-05
-2.87449e-05
-2.62448e-05
-2.37448e-05
-2.12449e-05
-1.87452e-05
-1.62456e-05
-1.3746e-05
-1.12466e-05
-8.74728e-06
-6.24801e-06
-3.74878e-06
-1.24959e-06
-4.12473e-05
-4.3748e-05
-4.62488e-05
-4.87496e-05
)
;
    }
    right
    {
        type            cyclic;
        value           nonuniform List<scalar> 
20
(
3.87466e-05
3.6246e-05
3.37456e-05
3.12452e-05
2.87449e-05
2.62448e-05
2.37448e-05
2.12449e-05
1.87452e-05
1.62456e-05
1.3746e-05
1.12466e-05
8.74728e-06
6.24801e-06
3.74878e-06
1.24959e-06
4.12473e-05
4.3748e-05
4.62488e-05
4.87496e-05
)
;
    }
    frontAndBack
    {
        type            empty;
        value           nonuniform List<scalar> 0();
    }
}


// ************************************************************************* //
