/*--------------------------------*- C++ -*----------------------------------*\
  =========                 |
  \\      /  F ield         | OpenFOAM: The Open Source CFD Toolbox
   \\    /   O peration     | Website:  https://openfoam.org
    \\  /    A nd           | Version:  8
     \\/     M anipulation  |
\*---------------------------------------------------------------------------*/
FoamFile
{
    version     2.0;
    format      ascii;
    class       volVectorField;
    location    "1.61";
    object      U;
}
// * * * * * * * * * * * * * * * * * * * * * * * * * * * * * * * * * * * * * //

dimensions      [0 1 -1 0 0 0 0];

internalField   nonuniform List<vector> 
400
(
(0.0249918 -1.78786e-17 0)
(0.0249918 2.7713e-17 0)
(0.0249918 4.02813e-17 0)
(0.0249918 2.5073e-17 0)
(0.0249918 1.32417e-17 0)
(0.0249918 3.97611e-18 0)
(0.0249918 2.28125e-18 0)
(0.0249918 -7.86647e-18 0)
(0.0249918 -1.00364e-17 0)
(0.0249918 -1.92018e-17 0)
(0.0249918 -2.42646e-17 0)
(0.0249918 -2.73442e-17 0)
(0.0249918 -2.99292e-17 0)
(0.0249918 -3.2047e-17 0)
(0.0249918 -3.16621e-17 0)
(0.0249918 -2.42399e-17 0)
(0.0249918 -1.48986e-17 0)
(0.0249918 2.66918e-18 0)
(0.0249918 1.66654e-17 0)
(0.0249918 1.87318e-17 0)
(0.0749757 1.10642e-16 0)
(0.0749757 1.42615e-16 0)
(0.0749757 1.3027e-16 0)
(0.0749757 7.8924e-17 0)
(0.0749757 2.2302e-17 0)
(0.0749757 -1.92058e-17 0)
(0.0749757 -5.72017e-17 0)
(0.0749757 -8.2674e-17 0)
(0.0749757 -1.1726e-16 0)
(0.0749757 -1.32038e-16 0)
(0.0749757 -1.47802e-16 0)
(0.0749757 -1.4657e-16 0)
(0.0749757 -1.35165e-16 0)
(0.0749757 -1.17628e-16 0)
(0.0749757 -9.2006e-17 0)
(0.0749757 -6.03558e-17 0)
(0.0749757 -9.06872e-19 0)
(0.0749757 4.00852e-17 0)
(0.0749757 1.05424e-16 0)
(0.0749757 1.24002e-16 0)
(0.12496 4.17259e-16 0)
(0.12496 3.96585e-16 0)
(0.12496 3.00642e-16 0)
(0.12496 1.49652e-16 0)
(0.12496 8.74962e-18 0)
(0.12496 -1.25187e-16 0)
(0.12496 -2.16646e-16 0)
(0.12496 -3.09362e-16 0)
(0.12496 -3.69897e-16 0)
(0.12496 -3.89754e-16 0)
(0.12496 -3.73289e-16 0)
(0.12496 -3.53966e-16 0)
(0.12496 -2.9034e-16 0)
(0.12496 -2.08048e-16 0)
(0.12496 -1.04195e-16 0)
(0.12496 8.55765e-18 0)
(0.12496 1.26976e-16 0)
(0.12496 2.49059e-16 0)
(0.12496 3.50093e-16 0)
(0.12496 4.26607e-16 0)
(0.174946 7.79404e-16 0)
(0.174946 6.42903e-16 0)
(0.174946 4.41017e-16 0)
(0.174946 1.76236e-16 0)
(0.174946 -1.04863e-16 0)
(0.174946 -3.31906e-16 0)
(0.174946 -5.26439e-16 0)
(0.174946 -6.55158e-16 0)
(0.174946 -7.39826e-16 0)
(0.174946 -7.61688e-16 0)
(0.174946 -7.07884e-16 0)
(0.174946 -5.97178e-16 0)
(0.174946 -4.45628e-16 0)
(0.174946 -2.46121e-16 0)
(0.174946 -1.55575e-17 0)
(0.174946 1.95992e-16 0)
(0.174946 4.16841e-16 0)
(0.174946 6.1823e-16 0)
(0.174946 7.55618e-16 0)
(0.174946 8.1821e-16 0)
(0.224932 1.11464e-15 0)
(0.224932 8.70519e-16 0)
(0.224932 5.1537e-16 0)
(0.224932 1.15186e-16 0)
(0.224932 -2.9683e-16 0)
(0.224932 -6.47104e-16 0)
(0.224932 -9.16706e-16 0)
(0.224932 -1.09276e-15 0)
(0.224932 -1.17648e-15 0)
(0.224932 -1.19018e-15 0)
(0.224932 -1.07018e-15 0)
(0.224932 -8.48153e-16 0)
(0.224932 -5.54463e-16 0)
(0.224932 -2.0621e-16 0)
(0.224932 1.64795e-16 0)
(0.224932 5.17397e-16 0)
(0.224932 8.42483e-16 0)
(0.224932 1.0868e-15 0)
(0.224932 1.22721e-15 0)
(0.224932 1.23574e-15 0)
(0.274921 1.3996e-15 0)
(0.274921 1.03718e-15 0)
(0.274921 5.46739e-16 0)
(0.274921 -9.64941e-18 0)
(0.274921 -5.38919e-16 0)
(0.274921 -9.96852e-16 0)
(0.274921 -1.32655e-15 0)
(0.274921 -1.55075e-15 0)
(0.274921 -1.62332e-15 0)
(0.274921 -1.58813e-15 0)
(0.274921 -1.37758e-15 0)
(0.274921 -1.05133e-15 0)
(0.274921 -6.08564e-16 0)
(0.274921 -9.67409e-17 0)
(0.274921 4.26637e-16 0)
(0.274921 9.05251e-16 0)
(0.274921 1.30751e-15 0)
(0.274921 1.57623e-15 0)
(0.274921 1.69119e-15 0)
(0.274921 1.60546e-15 0)
(0.324911 1.57584e-15 0)
(0.324911 1.10273e-15 0)
(0.324911 5.14225e-16 0)
(0.324911 -1.53079e-16 0)
(0.324911 -7.67071e-16 0)
(0.324911 -1.30493e-15 0)
(0.324911 -1.69882e-15 0)
(0.324911 -1.91854e-15 0)
(0.324911 -2.00132e-15 0)
(0.324911 -1.87443e-15 0)
(0.324911 -1.59347e-15 0)
(0.324911 -1.16431e-15 0)
(0.324911 -6.04388e-16 0)
(0.324911 5.24644e-17 0)
(0.324911 6.65455e-16 0)
(0.324911 1.23531e-15 0)
(0.324911 1.68931e-15 0)
(0.324911 1.99023e-15 0)
(0.324911 2.04202e-15 0)
(0.324911 1.91292e-15 0)
(0.374904 1.6722e-15 0)
(0.374904 1.09815e-15 0)
(0.374904 4.26345e-16 0)
(0.374904 -2.6634e-16 0)
(0.374904 -9.08417e-16 0)
(0.374904 -1.48175e-15 0)
(0.374904 -1.90473e-15 0)
(0.374904 -2.13103e-15 0)
(0.374904 -2.17226e-15 0)
(0.374904 -2.01389e-15 0)
(0.374904 -1.68217e-15 0)
(0.374904 -1.18492e-15 0)
(0.374904 -5.49385e-16 0)
(0.374904 1.61928e-16 0)
(0.374904 8.3415e-16 0)
(0.374904 1.43894e-15 0)
(0.374904 1.88731e-15 0)
(0.374904 2.17874e-15 0)
(0.374904 2.22847e-15 0)
(0.374904 2.06684e-15 0)
(0.424899 1.63646e-15 0)
(0.424899 1.04682e-15 0)
(0.424899 3.70263e-16 0)
(0.424899 -2.97415e-16 0)
(0.424899 -9.57998e-16 0)
(0.424899 -1.4773e-15 0)
(0.424899 -1.90536e-15 0)
(0.424899 -2.12437e-15 0)
(0.424899 -2.12381e-15 0)
(0.424899 -1.9681e-15 0)
(0.424899 -1.61781e-15 0)
(0.424899 -1.11287e-15 0)
(0.424899 -4.91223e-16 0)
(0.424899 1.69109e-16 0)
(0.424899 8.80871e-16 0)
(0.424899 1.44011e-15 0)
(0.424899 1.85308e-15 0)
(0.424899 2.10899e-15 0)
(0.424899 2.2188e-15 0)
(0.424899 2.05338e-15 0)
(0.474896 1.48403e-15 0)
(0.474896 9.33153e-16 0)
(0.474896 3.53723e-16 0)
(0.474896 -2.68534e-16 0)
(0.474896 -8.79721e-16 0)
(0.474896 -1.35271e-15 0)
(0.474896 -1.70986e-15 0)
(0.474896 -1.89423e-15 0)
(0.474896 -1.90143e-15 0)
(0.474896 -1.73187e-15 0)
(0.474896 -1.43383e-15 0)
(0.474896 -9.39547e-16 0)
(0.474896 -4.41592e-16 0)
(0.474896 1.31444e-16 0)
(0.474896 7.43136e-16 0)
(0.474896 1.27778e-15 0)
(0.474896 1.63357e-15 0)
(0.474896 1.87024e-15 0)
(0.474896 1.96513e-15 0)
(0.474896 1.84686e-15 0)
(0.524896 1.21045e-15 0)
(0.524896 7.66534e-16 0)
(0.524896 2.94152e-16 0)
(0.524896 -2.05048e-16 0)
(0.524896 -6.72221e-16 0)
(0.524896 -1.07216e-15 0)
(0.524896 -1.32727e-15 0)
(0.524896 -1.48843e-15 0)
(0.524896 -1.55176e-15 0)
(0.524896 -1.4e-15 0)
(0.524896 -1.13076e-15 0)
(0.524896 -7.55319e-16 0)
(0.524896 -3.50047e-16 0)
(0.524896 1.00825e-16 0)
(0.524896 5.45726e-16 0)
(0.524896 9.59522e-16 0)
(0.524896 1.30645e-15 0)
(0.524896 1.47997e-15 0)
(0.524896 1.53567e-15 0)
(0.524896 1.43757e-15 0)
(0.574899 8.1567e-16 0)
(0.574899 5.84828e-16 0)
(0.574899 2.36955e-16 0)
(0.574899 -1.70453e-16 0)
(0.574899 -4.43681e-16 0)
(0.574899 -7.2773e-16 0)
(0.574899 -8.94907e-16 0)
(0.574899 -1.00838e-15 0)
(0.574899 -1.09309e-15 0)
(0.574899 -1.01434e-15 0)
(0.574899 -7.43753e-16 0)
(0.574899 -5.15644e-16 0)
(0.574899 -1.72176e-16 0)
(0.574899 6.98682e-17 0)
(0.574899 3.62351e-16 0)
(0.574899 6.17566e-16 0)
(0.574899 8.68367e-16 0)
(0.574899 1.00283e-15 0)
(0.574899 9.86281e-16 0)
(0.574899 9.29208e-16 0)
(0.624904 3.81492e-16 0)
(0.624904 3.382e-16 0)
(0.624904 1.08636e-16 0)
(0.624904 -1.34947e-16 0)
(0.624904 -3.01236e-16 0)
(0.624904 -4.27533e-16 0)
(0.624904 -5.35653e-16 0)
(0.624904 -5.82326e-16 0)
(0.624904 -5.84911e-16 0)
(0.624904 -5.35632e-16 0)
(0.624904 -4.10509e-16 0)
(0.624904 -2.22389e-16 0)
(0.624904 -1.62712e-17 0)
(0.624904 9.01846e-17 0)
(0.624904 2.44289e-16 0)
(0.624904 3.71031e-16 0)
(0.624904 4.27453e-16 0)
(0.624904 5.00658e-16 0)
(0.624904 4.9943e-16 0)
(0.624904 4.33498e-16 0)
(0.674911 -3.13697e-17 0)
(0.674911 -1.80099e-18 0)
(0.674911 -6.32353e-17 0)
(0.674911 -9.55875e-17 0)
(0.674911 -1.47001e-16 0)
(0.674911 -1.63466e-16 0)
(0.674911 -2.16685e-16 0)
(0.674911 -2.16454e-16 0)
(0.674911 -1.85261e-16 0)
(0.674911 -1.40946e-16 0)
(0.674911 -8.80609e-17 0)
(0.674911 -1.13769e-17 0)
(0.674911 4.84004e-17 0)
(0.674911 1.28413e-16 0)
(0.674911 1.72082e-16 0)
(0.674911 1.78325e-16 0)
(0.674911 1.55295e-16 0)
(0.674911 1.7347e-16 0)
(0.674911 1.10202e-16 0)
(0.674911 1.98639e-17 0)
(0.724921 -2.8389e-16 0)
(0.724921 -2.24821e-16 0)
(0.724921 -1.21159e-16 0)
(0.724921 -4.95552e-17 0)
(0.724921 -2.18976e-17 0)
(0.724921 -3.1152e-17 0)
(0.724921 -3.19789e-17 0)
(0.724921 2.12878e-17 0)
(0.724921 4.78781e-17 0)
(0.724921 5.18735e-17 0)
(0.724921 1.11212e-16 0)
(0.724921 1.4885e-16 0)
(0.724921 1.52193e-16 0)
(0.724921 1.28483e-16 0)
(0.724921 9.85297e-17 0)
(0.724921 3.53293e-17 0)
(0.724921 1.98723e-17 0)
(0.724921 -3.22166e-17 0)
(0.724921 -1.25833e-16 0)
(0.724921 -2.16084e-16 0)
(0.774932 -2.86605e-16 0)
(0.774932 -2.4271e-16 0)
(0.774932 -1.04413e-16 0)
(0.774932 -9.9979e-18 0)
(0.774932 4.65397e-18 0)
(0.774932 -4.47581e-17 0)
(0.774932 -1.22309e-17 0)
(0.774932 7.36038e-17 0)
(0.774932 1.77851e-16 0)
(0.774932 1.77291e-16 0)
(0.774932 1.67883e-16 0)
(0.774932 2.18763e-16 0)
(0.774932 2.12297e-16 0)
(0.774932 1.38841e-16 0)
(0.774932 1.96663e-17 0)
(0.774932 -2.61145e-17 0)
(0.774932 -8.45678e-17 0)
(0.774932 -1.88346e-16 0)
(0.774932 -2.21807e-16 0)
(0.774932 -2.35812e-16 0)
(0.824946 -1.86274e-16 0)
(0.824946 -1.87942e-16 0)
(0.824946 -9.60477e-17 0)
(0.824946 -3.0611e-17 0)
(0.824946 -5.39998e-18 0)
(0.824946 -3.89273e-17 0)
(0.824946 -2.94256e-17 0)
(0.824946 6.33149e-17 0)
(0.824946 1.86263e-16 0)
(0.824946 2.0796e-16 0)
(0.824946 1.76454e-16 0)
(0.824946 1.59051e-16 0)
(0.824946 1.74684e-16 0)
(0.824946 1.72013e-16 0)
(0.824946 2.14078e-18 0)
(0.824946 -7.068e-17 0)
(0.824946 -1.35125e-16 0)
(0.824946 -2.27635e-16 0)
(0.824946 -2.67783e-16 0)
(0.824946 -2.38684e-16 0)
(0.87496 -1.16918e-16 0)
(0.87496 -1.0278e-16 0)
(0.87496 -4.89922e-17 0)
(0.87496 -9.20577e-18 0)
(0.87496 -4.23872e-17 0)
(0.87496 -5.96342e-17 0)
(0.87496 -7.89845e-17 0)
(0.87496 -7.77644e-17 0)
(0.87496 8.60339e-17 0)
(0.87496 1.6737e-16 0)
(0.87496 1.35528e-16 0)
(0.87496 1.37467e-16 0)
(0.87496 1.42018e-16 0)
(0.87496 1.46238e-16 0)
(0.87496 -1.64643e-17 0)
(0.87496 -1.13315e-16 0)
(0.87496 -1.16356e-16 0)
(0.87496 -1.36132e-16 0)
(0.87496 -1.26605e-16 0)
(0.87496 -1.3405e-16 0)
(0.924976 1.27718e-17 0)
(0.924976 -2.95019e-17 0)
(0.924976 7.02489e-18 0)
(0.924976 7.58146e-17 0)
(0.924976 -3.8899e-17 0)
(0.924976 -7.57307e-17 0)
(0.924976 -1.31363e-16 0)
(0.924976 -1.40269e-16 0)
(0.924976 -3.80993e-17 0)
(0.924976 1.04359e-16 0)
(0.924976 1.51121e-16 0)
(0.924976 8.67292e-17 0)
(0.924976 7.15714e-17 0)
(0.924976 6.89031e-17 0)
(0.924976 -2.06064e-17 0)
(0.924976 -1.01516e-16 0)
(0.924976 -7.38034e-17 0)
(0.924976 -3.22298e-17 0)
(0.924976 -1.17092e-17 0)
(0.924976 3.64179e-17 0)
(0.974992 4.66997e-17 0)
(0.974992 -1.49014e-18 0)
(0.974992 5.74354e-18 0)
(0.974992 5.80306e-17 0)
(0.974992 2.3102e-18 0)
(0.974992 -2.30573e-17 0)
(0.974992 -6.48604e-17 0)
(0.974992 -4.91846e-17 0)
(0.974992 -4.5711e-17 0)
(0.974992 2.07888e-17 0)
(0.974992 7.44284e-17 0)
(0.974992 -1.63071e-18 0)
(0.974992 1.16004e-17 0)
(0.974992 2.01899e-17 0)
(0.974992 3.04083e-18 0)
(0.974992 -4.95707e-17 0)
(0.974992 -2.46537e-17 0)
(0.974992 -9.26499e-18 0)
(0.974992 -6.19636e-18 0)
(0.974992 4.0737e-17 0)
)
;

boundaryField
{
    movingWall
    {
        type            fixedValue;
        value           uniform (1 0 0);
    }
    fixedWalls
    {
        type            noSlip;
    }
    left
    {
        type            cyclic;
    }
    right
    {
        type            cyclic;
    }
    frontAndBack
    {
        type            empty;
    }
}


// ************************************************************************* //
