/*--------------------------------*- C++ -*----------------------------------*\
  =========                 |
  \\      /  F ield         | OpenFOAM: The Open Source CFD Toolbox
   \\    /   O peration     | Website:  https://openfoam.org
    \\  /    A nd           | Version:  8
     \\/     M anipulation  |
\*---------------------------------------------------------------------------*/
FoamFile
{
    version     2.0;
    format      ascii;
    class       volScalarField;
    location    "0.252";
    object      T;
}
// * * * * * * * * * * * * * * * * * * * * * * * * * * * * * * * * * * * * * //

dimensions      [0 0 0 1 0 0 0];

internalField   nonuniform List<scalar> 
10000
(
49.9999
4.66071
-4.65918
-1.20024
1.19313
0.484021
-0.463442
-0.268183
0.223344
0.1909
-0.110806
-0.157849
0.0365918
0.132627
0.0229694
-0.0968218
-0.0668136
0.0444364
0.0827721
0.0150536
-0.0607151
-0.0571991
0.00845329
0.0564923
0.0408544
-0.0126022
-0.0472057
-0.0348478
0.00571943
0.035967
0.0338568
0.00698842
-0.0206521
-0.030149
-0.0191848
0.00111495
0.0169866
0.020943
0.0140092
0.00240622
-0.00736641
-0.0117718
-0.0107863
-0.00658308
-0.00176176
0.00186566
0.00363911
0.0037947
0.00298152
0.00185157
0.000845123
0.000154644
-0.00021031
-0.000332187
-0.000313324
-0.000236447
-0.000152712
-8.56853e-05
-4.09775e-05
-1.53373e-05
-2.82018e-06
2.02708e-06
3.07078e-06
2.60637e-06
1.78499e-06
1.07003e-06
5.77644e-07
2.83073e-07
1.25105e-07
4.85199e-08
1.52091e-08
2.61587e-09
-1.1292e-09
-1.62647e-09
-1.21846e-09
-7.36008e-10
-3.92514e-10
-1.90986e-10
-8.59164e-11
-3.58403e-11
-1.37842e-11
-4.79811e-12
-1.44134e-12
-3.20124e-13
-7.12873e-15
4.88275e-14
3.97301e-14
2.30761e-14
1.15013e-14
5.19625e-15
2.17646e-15
8.53294e-16
3.13842e-16
1.07848e-16
3.4188e-17
9.70263e-18
2.27251e-18
3.15297e-19
-9.40031e-20
-7.93329e-20
95.3395
49.9994
10.5193
-4.65426
-2.87607
1.1761
1.21456
-0.423638
-0.68265
0.149424
0.462343
0.0043753
-0.333312
-0.11534
0.215678
0.188133
-0.0836808
-0.202118
-0.0492296
0.140435
0.138239
-0.0203123
-0.135166
-0.0921885
0.038683
0.114569
0.0731579
-0.0283125
-0.0916909
-0.071215
0.00181929
0.0626868
0.0701924
0.0299225
-0.0222734
-0.052099
-0.0476041
-0.0194869
0.012006
0.0309969
0.0325682
0.0212953
0.00568249
-0.00705503
-0.01351
-0.0139051
-0.0104873
-0.00582702
-0.00176751
0.000866249
0.00205547
0.00220142
0.00179285
0.00121617
0.000697652
0.000325874
0.00010316
-6.49526e-06
-4.58179e-05
-4.91207e-05
-3.8466e-05
-2.54934e-05
-1.49487e-05
-7.8588e-06
-3.68319e-06
-1.49153e-06
-4.7115e-07
-6.33403e-08
6.17546e-08
7.56668e-08
5.66881e-08
3.50144e-08
1.91864e-08
9.58527e-09
4.40973e-09
1.86708e-09
7.18901e-10
2.43558e-10
6.59638e-11
8.62284e-12
-5.30664e-12
-6.01784e-12
-3.98646e-12
-2.17512e-12
-1.05871e-12
-4.7378e-13
-1.97448e-13
-7.69336e-14
-2.79424e-14
-9.34965e-15
-2.8009e-15
-6.96204e-16
-1.04219e-16
2.42148e-17
3.26168e-17
2.02871e-17
1.01174e-17
4.45845e-18
1.86354e-18
5.71855e-19
104.66
89.4809
49.9984
12.1949
-4.64414
-3.60731
1.14592
1.63259
-0.360912
-0.9626
0.044337
0.652453
0.151725
-0.43566
-0.286365
0.220629
0.341797
0.00277408
-0.285152
-0.184209
0.117774
0.243922
0.086164
-0.141155
-0.195007
-0.0515665
0.121017
0.1619
0.0584164
-0.0783919
-0.134476
-0.0826913
0.0191265
0.0918677
0.0948742
0.0415607
-0.0246386
-0.0649433
-0.0655265
-0.0367767
0.000162623
0.0273888
0.037305
0.0320633
0.0188484
0.00496319
-0.00501815
-0.00974979
-0.0101484
-0.0080422
-0.00514236
-0.00255931
-0.000763362
0.000226878
0.000612711
0.000640471
0.000509017
0.00034287
0.000201992
0.000104074
4.53521e-05
1.47332e-05
1.2357e-06
-3.25328e-06
-3.74222e-06
-2.88219e-06
-1.85403e-06
-1.0582e-06
-5.47881e-07
-2.58724e-07
-1.10583e-07
-4.16144e-08
-1.27129e-08
-2.16802e-09
8.54355e-10
1.22879e-09
9.0307e-10
5.34541e-10
2.79531e-10
1.33543e-10
5.90931e-11
2.43104e-11
9.25728e-12
3.21309e-12
9.77882e-13
2.32569e-13
2.05191e-14
-2.19529e-14
-2.02772e-14
-1.21009e-14
-6.07005e-15
-2.74085e-15
-1.14454e-15
-4.4726e-16
-1.64201e-16
-5.6516e-17
-1.80603e-17
-5.25144e-18
-1.30423e-18
-2.00725e-19
101.2
104.657
87.8051
49.997
12.927
-4.62714
-4.02958
1.09964
1.92324
-0.272362
-1.17243
-0.0922519
0.78312
0.325455
-0.471246
-0.461879
0.153976
0.462678
0.143868
-0.298837
-0.32601
0.0194106
0.295483
0.222741
-0.0659858
-0.251678
-0.177037
0.0461153
0.199058
0.167735
0.0102957
-0.131314
-0.158917
-0.0766719
0.0396191
0.11193
0.108965
0.0504827
-0.0197895
-0.0652943
-0.0727834
-0.0505428
-0.0167368
0.012293
0.0281586
0.0305605
0.0240158
0.0141173
0.00508291
-0.00104215
-0.00402616
-0.00464208
-0.00392971
-0.00275068
-0.0016335
-0.00080407
-0.000290136
-2.53264e-05
7.91002e-05
9.79015e-05
8.08928e-05
5.54158e-05
3.3373e-05
1.80119e-05
8.70891e-06
3.69226e-06
1.2809e-06
2.70508e-07
-7.17721e-08
-1.38097e-07
-1.13594e-07
-7.3423e-08
-4.14708e-08
-2.12346e-08
-9.99902e-09
-4.34186e-09
-1.72574e-09
-6.13435e-10
-1.83127e-10
-3.61733e-11
4.44199e-12
1.04242e-11
7.76987e-12
4.47193e-12
2.25099e-12
1.03344e-12
4.40456e-13
1.75466e-13
6.53155e-14
2.25422e-14
7.06975e-15
1.91707e-15
3.82238e-16
3.71803e-18
-5.18536e-17
-3.81731e-17
-2.0353e-17
-9.32128e-18
-4.01244e-18
-1.25728e-18
98.8055
102.876
104.65
87.0726
49.9952
13.3522
-4.60163
-4.32984
1.03464
2.1536
-0.155937
-1.33655
-0.258888
0.860992
0.517162
-0.442192
-0.625385
0.0247733
0.531723
0.315577
-0.235814
-0.439656
-0.134903
0.269314
0.345346
0.0747503
-0.228913
-0.286013
-0.0902404
0.151617
0.240359
0.138008
-0.045251
-0.168879
-0.165995
-0.0660573
0.0514677
0.11904
0.115167
0.0608757
-0.00533588
-0.052229
-0.0675544
-0.0562545
-0.0316677
-0.0067941
0.0105386
0.0183099
0.0184282
0.0142786
0.00891955
0.00427642
0.00111946
-0.000572951
-0.00119237
-0.00119145
-0.000926027
-0.00061381
-0.000356243
-0.000180363
-7.64985e-05
-2.32658e-05
-3.91598e-07
6.78002e-06
7.14803e-06
5.34298e-06
3.37887e-06
1.90451e-06
9.75266e-07
4.5536e-07
1.91967e-07
7.07662e-08
2.07112e-08
2.85928e-09
-1.9989e-09
-2.39842e-09
-1.69332e-09
-9.83132e-10
-5.0773e-10
-2.40224e-10
-1.05386e-10
-4.29787e-11
-1.62029e-11
-5.54873e-12
-1.65145e-12
-3.72016e-13
-1.8299e-14
4.6466e-14
3.88986e-14
2.25328e-14
1.11285e-14
4.973e-15
2.05986e-15
7.99206e-16
2.91347e-16
9.95043e-17
3.14915e-17
9.03034e-18
2.18011e-18
3.1193e-19
99.5167
98.8197
103.608
104.636
86.6468
49.9929
13.6584
-4.56605
-4.57723
0.948568
2.35076
-0.0104767
-1.46343
-0.452333
0.886658
0.716227
-0.35065
-0.759815
-0.153716
0.534448
0.489964
-0.100111
-0.494588
-0.313196
0.159693
0.411739
0.24446
-0.118411
-0.329076
-0.240833
0.0219421
0.228968
0.243225
0.0939461
-0.0887159
-0.18666
-0.163346
-0.0606202
0.0493385
0.112381
0.113756
0.0714042
0.015799
-0.028143
-0.0493111
-0.0492503
-0.0362724
-0.0194836
-0.00522538
0.00380187
0.00769845
0.00797232
0.00637628
0.00426364
0.00240816
0.00109837
0.000325249
-4.78802e-05
-0.0001758
-0.000180346
-0.000138694
-9.09004e-05
-5.28419e-05
-2.75554e-05
-1.27955e-05
-5.11209e-06
-1.56822e-06
-1.71273e-07
2.4419e-07
2.79102e-07
2.05111e-07
1.25459e-07
6.83079e-08
3.39582e-08
1.55552e-08
6.55746e-09
2.51191e-09
8.44555e-10
2.25069e-10
2.68193e-11
-2.029e-11
-2.18681e-11
-1.43065e-11
-7.75968e-12
-3.76318e-12
-1.67972e-12
-6.98618e-13
-2.71742e-13
-9.85367e-14
-3.29124e-14
-9.83631e-15
-2.43423e-15
-3.58246e-16
8.91751e-17
1.16476e-16
7.20778e-17
3.58706e-17
1.57897e-17
6.59584e-18
2.02324e-18
100.466
98.7846
98.8464
104.032
104.615
86.3398
49.9902
13.9159
-4.51892
-4.80116
0.839394
2.52577
0.164256
-1.55449
-0.667639
0.858699
0.910353
-0.200891
-0.848977
-0.363767
0.462939
0.637752
0.0926516
-0.469519
-0.47651
-0.0194111
0.391543
0.394526
0.0596167
-0.275709
-0.347202
-0.151218
0.120043
0.267588
0.222831
0.0551801
-0.111232
-0.187164
-0.157264
-0.0641564
0.0327835
0.0919591
0.10219
0.0761213
0.0356156
-0.000710529
-0.023242
-0.0309956
-0.028117
-0.0201228
-0.0114536
-0.00459893
-0.000311725
0.0017252
0.00224648
0.00197386
0.00142549
0.000891254
0.000487465
0.00022858
8.46183e-05
1.61072e-05
-9.86236e-06
-1.53684e-05
-1.29955e-05
-8.83825e-06
-5.26384e-06
-2.82881e-06
-1.38483e-06
-6.15176e-07
-2.4283e-07
-8.01557e-08
-1.75455e-08
2.16449e-09
5.83444e-09
4.73728e-09
2.94924e-09
1.59809e-09
7.86249e-10
3.57357e-10
1.50927e-10
5.90924e-11
2.11889e-11
6.74538e-12
1.74894e-12
2.46209e-13
-9.72314e-14
-1.16225e-13
-7.4414e-14
-3.88227e-14
-1.80393e-14
-7.71608e-15
-3.08233e-15
-1.15625e-15
-4.0701e-16
-1.33466e-16
-4.00115e-17
-1.0538e-17
-2.07208e-18
-1.13583e-19
100.268
100.429
98.3641
98.8888
104.335
104.585
86.0811
49.9871
14.1555
-4.45878
-5.01508
0.705405
2.68234
0.367552
-1.60794
-0.89826
0.775749
1.08621
-0.000341556
-0.879019
-0.583875
0.317294
0.731552
0.316668
-0.356331
-0.58574
-0.236231
0.274226
0.476736
0.26068
-0.125866
-0.360406
-0.305534
-0.0572777
0.184341
0.274413
0.196438
0.0330387
-0.111446
-0.173587
-0.149135
-0.0742774
0.00570994
0.0597116
0.0782243
0.0683971
0.0443317
0.018918
-0.000153823
-0.0106029
-0.0137442
-0.0123273
-0.00898363
-0.00550926
-0.00278722
-0.00103058
-9.24956e-05
0.000291991
0.000368118
0.000309139
0.000214849
0.000131006
7.14091e-05
3.4737e-05
1.4709e-05
4.99711e-06
9.19099e-07
-4.41151e-07
-6.72748e-07
-5.36548e-07
-3.4415e-07
-1.94183e-07
-9.95354e-08
-4.69199e-08
-2.03621e-08
-8.05634e-09
-2.82499e-09
-8.10874e-10
-1.33735e-10
4.42711e-11
6.26991e-11
4.39312e-11
2.47567e-11
1.23482e-11
5.64375e-12
2.39882e-12
9.53075e-13
3.53316e-13
1.21001e-13
3.73525e-14
9.75717e-15
1.70585e-15
-1.72891e-16
-3.75782e-16
-2.50624e-16
-1.29328e-16
-5.8625e-17
-2.42734e-17
-9.63751e-18
-2.84429e-18
99.7738
100.685
100.37
98.0697
98.9495
104.586
104.543
85.8401
49.9835
14.3919
-4.38423
-5.22523
0.545215
2.82051
0.597747
-1.62061
-1.13624
0.637666
1.23018
0.240041
-0.839819
-0.790121
0.10632
0.749285
0.538891
-0.162298
-0.609016
-0.446775
0.0731596
0.456425
0.427416
0.0872974
-0.259913
-0.377904
-0.239743
0.0142895
0.212372
0.26163
0.175158
0.0304351
-0.0916987
-0.147155
-0.135422
-0.0833188
-0.0231162
0.0225353
0.0452155
0.0476618
0.0378355
0.0238368
0.0112043
0.00241958
-0.00232266
-0.00400173
-0.00387439
-0.00297428
-0.00195204
-0.00111633
-0.000549111
-0.000217511
-5.12381e-05
1.64895e-05
3.40589e-05
3.07922e-05
2.17776e-05
1.3363e-05
7.36785e-06
3.69319e-06
1.67903e-06
6.79281e-07
2.31279e-07
5.39869e-08
-3.97956e-09
-1.59019e-08
-1.34816e-08
-8.60115e-09
-4.75009e-09
-2.37605e-09
-1.09655e-09
-4.69895e-10
-1.86613e-10
-6.78843e-11
-2.19489e-11
-5.80522e-12
-8.60408e-13
3.02067e-13
3.81953e-13
2.49288e-13
1.31883e-13
6.2027e-14
2.68301e-14
1.08329e-14
4.106e-15
1.4602e-15
4.83726e-16
1.46628e-16
3.89273e-17
8.0206e-18
3.49852e-19
-5.64912e-19
99.8085
99.8448
100.97
100.284
97.8343
99.0311
104.814
104.49
85.6016
49.9796
14.6333
-4.29391
-5.43423
0.357768
2.93834
0.852223
-1.58898
-1.37241
0.446231
1.32916
0.505859
-0.726183
-0.958036
-0.152648
0.67735
0.723263
0.0899084
-0.528414
-0.603326
-0.17549
0.323191
0.50564
0.305093
-0.0640641
-0.329579
-0.353845
-0.17895
0.0528003
0.209961
0.238209
0.161632
0.0435615
-0.0567588
-0.108494
-0.110946
-0.0816284
-0.0419714
-0.00780993
0.013672
0.0223899
0.0220325
0.0170718
0.0110148
0.00586366
0.00233132
0.000334483
-0.000546123
-0.000764735
-0.000670986
-0.00048059
-0.000300229
-0.000167074
-8.27479e-05
-3.55706e-05
-1.22029e-05
-2.20107e-06
1.194e-06
1.78085e-06
1.42897e-06
9.25218e-07
5.27245e-07
2.72855e-07
1.29744e-07
5.67127e-08
2.25418e-08
7.8978e-09
2.23005e-09
3.25999e-10
-1.6459e-10
-2.0357e-10
-1.39951e-10
-7.86003e-11
-3.92589e-11
-1.80001e-11
-7.67869e-12
-3.06091e-12
-1.13712e-12
-3.89279e-13
-1.1946e-13
-3.05523e-14
-4.8352e-15
9.70688e-16
1.4399e-15
9.23241e-16
4.70933e-16
2.12629e-16
8.82838e-17
3.41808e-17
1.27455e-17
3.56799e-18
100.114
99.5319
99.9479
101.186
100.17
97.6308
99.136
105.033
104.422
85.3579
49.9752
14.8839
-4.18646
-5.6427
0.142357
3.03283
1.12742
-1.50986
-1.59673
0.205576
1.3714
0.779735
-0.538771
-1.06477
-0.434869
0.513096
0.835784
0.364673
-0.344735
-0.664489
-0.419294
0.0962573
0.460996
0.459967
0.172312
-0.164224
-0.346457
-0.314211
-0.138609
0.05868
0.184023
0.206934
0.150979
0.0630552
-0.0152499
-0.0620432
-0.0752071
-0.0646267
-0.0433837
-0.0218872
-0.00576143
0.00359302
0.00731772
0.00746069
0.00591562
0.00397681
0.00231586
0.00115222
0.000455395
9.96052e-05
-4.67561e-05
-8.39512e-05
-7.49331e-05
-5.30445e-05
-3.26827e-05
-1.80954e-05
-9.0923e-06
-4.12687e-06
-1.65236e-06
-5.43803e-07
-1.09198e-07
2.80273e-08
5.14614e-08
4.07134e-08
2.54019e-08
1.38976e-08
6.91934e-09
3.18291e-09
1.35869e-09
5.36039e-10
1.92506e-10
6.05382e-11
1.48482e-11
1.33354e-12
-1.50715e-12
-1.42924e-12
-8.77483e-13
-4.52769e-13
-2.10202e-13
-9.02e-14
-3.61991e-14
-1.3639e-14
-4.81382e-15
-1.57632e-15
-4.68055e-16
-1.19059e-16
-2.12417e-17
8.23133e-19
3.69394e-18
1.88422e-18
100.16
99.9999
99.3352
100.084
101.358
100.026
97.4479
99.2659
105.25
104.339
85.1043
49.9703
15.1463
-4.06057
-5.85009
-0.101374
3.10034
1.41887
-1.38076
-1.7985
-0.0775972
1.34732
1.04211
-0.28464
-1.0914
-0.71023
0.26621
0.849806
0.618245
-0.0792861
-0.604926
-0.600619
-0.177467
0.29152
0.49687
0.373695
0.0688447
-0.209936
-0.32896
-0.275094
-0.121368
0.0384291
0.140178
0.166124
0.134094
0.0760112
0.0198697
-0.0187502
-0.0365936
-0.0381676
-0.0306173
-0.0202112
-0.0108816
-0.00426462
-0.000436185
0.00127193
0.00168182
0.00146394
0.00104854
0.000655429
0.000363882
0.000178499
7.47041e-05
2.36059e-05
2.20323e-06
-4.56226e-06
-5.21146e-06
-3.93897e-06
-2.48761e-06
-1.39807e-06
-7.1608e-07
-3.36877e-07
-1.45109e-07
-5.62823e-08
-1.87774e-08
-4.63969e-09
-1.5075e-10
8.17717e-10
7.34009e-10
4.65362e-10
2.51952e-10
1.23178e-10
5.56231e-11
2.34163e-11
9.20331e-12
3.3573e-12
1.11787e-12
3.26111e-13
7.37206e-14
5.40672e-15
-7.2276e-15
-6.25596e-15
-3.59647e-15
-1.74965e-15
-7.68908e-16
-3.13341e-16
-1.19811e-16
-4.31035e-17
-1.48518e-17
-3.85301e-18
99.9606
100.342
99.8513
99.1969
100.252
101.493
99.8518
97.2821
99.4226
105.467
104.239
84.8383
49.9649
15.4221
-3.91492
-6.05511
-0.373412
3.13697
1.72122
-1.20024
-1.96685
-0.393961
1.25033
1.27229
0.0226639
-1.02512
-0.946098
-0.0412771
0.750839
0.805408
0.228017
-0.422739
-0.670182
-0.432979
0.0319758
0.392946
0.469031
0.289315
0.0098981
-0.210458
-0.291123
-0.240644
-0.120241
0.00274083
0.0851619
0.115374
0.10445
0.0723504
0.0370013
0.00922126
-0.00741866
-0.0141922
-0.0144192
-0.0114474
-0.0076843
-0.00443298
-0.00214499
-0.000778417
-9.21487e-05
0.000174979
0.00022541
0.000187341
0.000128565
7.77011e-05
4.23046e-05
2.08357e-05
9.17465e-06
3.47175e-06
9.91598e-07
7.36065e-08
-1.74896e-07
-1.81937e-07
-1.27835e-07
-7.56759e-08
-4.01283e-08
-1.95226e-08
-8.79402e-09
-3.66777e-09
-1.40311e-09
-4.79856e-10
-1.3695e-10
-2.48053e-11
4.45672e-12
8.03706e-12
5.70368e-12
3.18307e-12
1.56375e-12
7.03381e-13
2.94619e-13
1.15704e-13
4.26185e-14
1.4633e-14
4.60826e-15
1.28103e-15
2.81359e-16
2.49273e-17
-2.08395e-17
-1.808e-17
-1.04938e-17
-3.88083e-18
99.8633
100.115
100.452
99.6734
99.111
100.45
101.594
99.6469
97.1334
99.6073
105.685
104.122
84.5582
49.9591
15.7123
-3.7482
-6.25597
-0.673365
3.1387
2.02828
-0.968172
-2.09103
-0.731661
1.07749
1.44976
0.36352
-0.861144
-1.11078
-0.37656
0.540137
0.887191
0.524336
-0.14265
-0.600202
-0.602886
-0.252417
0.168835
0.418246
0.41482
0.228597
-0.0060967
-0.177591
-0.23942
-0.205781
-0.121879
-0.0334809
0.030628
0.0617439
0.0653257
0.0526718
0.0345219
0.0179846
0.00620399
-0.000533398
-0.00338425
-0.00385415
-0.00319872
-0.00223091
-0.00136304
-0.000735746
-0.00034495
-0.000131491
-3.05143e-05
8.43256e-06
1.78653e-05
1.58409e-05
1.09736e-05
6.6124e-06
3.59551e-06
1.78853e-06
8.14853e-07
3.36295e-07
1.2168e-07
3.50389e-08
4.78289e-09
-3.27011e-09
-3.88585e-09
-2.71658e-09
-1.56387e-09
-8.02162e-10
-3.77734e-10
-1.65367e-10
-6.75509e-11
-2.56555e-11
-8.94241e-12
-2.77099e-12
-6.99241e-13
-9.47372e-14
3.84253e-14
4.43209e-14
2.77702e-14
1.42232e-14
6.50129e-15
2.74068e-15
1.0812e-15
4.01544e-16
1.40399e-16
4.59608e-17
1.40157e-17
3.14395e-18
99.9779
99.7739
100.292
100.494
99.4744
99.0776
100.672
101.657
99.4128
97.0038
99.821
105.903
103.985
84.263
49.9526
16.0175
-3.5591
-6.45052
-1.00045
3.10158
2.33313
-0.685913
-2.16091
-1.07656
0.830146
1.55555
0.713183
-0.604082
-1.17728
-0.699204
0.236368
0.83846
0.752842
0.186287
-0.393926
-0.635778
-0.482424
-0.113428
0.230407
0.394157
0.357035
0.194812
0.0100028
-0.122664
-0.176221
-0.162735
-0.112409
-0.0548241
-0.00894562
0.018335
0.0287198
0.0278075
0.0214705
0.0140032
0.00772991
0.00341931
0.000929765
-0.000242249
-0.000623587
-0.000615496
-0.000466827
-0.000304321
-0.000176843
-9.25968e-05
-4.34247e-05
-1.77112e-05
-5.7258e-06
-8.96968e-07
6.22987e-07
8.29627e-07
6.36202e-07
3.98702e-07
2.21298e-07
1.12091e-07
5.24269e-08
2.26833e-08
9.01067e-09
3.21403e-09
9.70683e-10
2.00655e-10
-1.56399e-11
-5.02889e-11
-3.85685e-11
-2.24906e-11
-1.14307e-11
-5.29621e-12
-2.28007e-12
-9.1933e-13
-3.47556e-13
-1.22553e-13
-3.972e-14
-1.14302e-14
-2.6518e-15
-3.00936e-16
1.57542e-16
1.56569e-16
9.11678e-17
4.37253e-17
1.94814e-17
6.25685e-18
100.102
99.8057
99.7647
100.477
100.469
99.2648
99.0991
100.912
101.68
99.1519
96.8964
100.064
106.121
103.827
83.9521
49.9457
16.3381
-3.3463
-6.6363
-1.35346
3.02186
2.62812
-0.356483
-2.16738
-1.41261
0.514308
1.57382
1.04328
-0.268605
-1.12708
-0.965714
-0.125144
0.65411
0.86364
0.498745
-0.088597
-0.512575
-0.587816
-0.367153
-0.0347046
0.231275
0.341172
0.302105
0.178124
0.0414615
-0.0592237
-0.107297
-0.110313
-0.0866235
-0.0543167
-0.0255393
-0.00561415
0.0051584
0.00902375
0.00880641
0.00682162
0.00453135
0.00263726
0.00133475
0.000559741
0.000160389
-1.09301e-05
-6.30348e-05
-6.31527e-05
-4.68173e-05
-2.96936e-05
-1.68658e-05
-8.72677e-06
-4.12552e-06
-1.76473e-06
-6.62359e-07
-1.99166e-07
-3.02619e-08
1.74708e-08
2.24716e-08
1.63024e-08
9.66671e-09
5.0917e-09
2.45769e-09
1.10144e-09
4.60071e-10
1.78474e-10
6.34584e-11
2.00191e-11
5.11842e-12
6.81136e-13
-3.13961e-13
-3.5662e-13
-2.26039e-13
-1.17536e-13
-5.45934e-14
-2.33908e-14
-9.37747e-15
-3.53803e-15
-1.25625e-15
-4.17373e-16
-1.27786e-16
-3.49542e-17
-7.62834e-18
-7.83383e-19
100.069
100.091
99.6421
99.8307
100.653
100.379
99.0572
99.1778
101.163
101.657
98.8674
96.8152
100.338
106.336
103.646
83.6247
49.938
16.6743
-3.10847
-6.81063
-1.73077
2.89605
2.90506
0.0153267
-2.10286
-1.72241
0.140875
1.49334
1.32378
0.120807
-0.953365
-1.13514
-0.495877
0.352562
0.824835
0.726067
0.249919
-0.255819
-0.530644
-0.508742
-0.284767
-0.0117969
0.189376
0.270035
0.245243
0.162041
0.0683781
-0.0045395
-0.0455654
-0.0581154
-0.0522058
-0.0381594
-0.0233672
-0.0116417
-0.00401357
6.17381e-05
0.00169462
0.00195209
0.00160675
0.00111218
0.000679259
0.000371544
0.000181255
7.66463e-05
2.56045e-05
4.10474e-06
-3.00707e-06
-4.09779e-06
-3.2259e-06
-2.07397e-06
-1.17955e-06
-6.1132e-07
-2.92047e-07
-1.28764e-07
-5.19401e-08
-1.86906e-08
-5.6027e-09
-1.06436e-09
1.99892e-10
3.77242e-10
2.79599e-10
1.62753e-10
8.32985e-11
3.89886e-11
1.69733e-11
6.91917e-12
2.64156e-12
9.38263e-13
3.0478e-13
8.68886e-14
1.92278e-14
1.3879e-15
-1.80686e-15
-1.53735e-15
-8.69236e-16
-4.16347e-16
-1.80439e-16
-7.2404e-17
-2.80108e-17
-8.10943e-18
99.9515
100.214
100.002
99.5098
99.9643
100.801
100.226
98.8657
99.315
101.416
101.586
98.5636
96.7643
100.641
106.546
103.443
83.2807
49.9297
17.0265
-2.84424
-6.97059
-2.13031
2.7211
3.15523
0.422868
-1.96173
-1.98784
-0.274402
1.30886
1.52544
0.531109
-0.663425
-1.17516
-0.820168
-0.024513
0.631517
0.811913
0.540857
0.0719848
-0.321137
-0.487988
-0.428466
-0.237493
-0.0280248
0.122358
0.187465
0.18076
0.133388
0.0755715
0.0270283
-0.00436329
-0.019253
-0.0223828
-0.0191282
-0.0136567
-0.00843341
-0.00449411
-0.00197473
-0.00059195
3.91356e-05
0.000247188
0.000256581
0.000196256
0.000128058
7.46197e-05
3.94808e-05
1.90016e-05
8.2166e-06
3.07232e-06
8.79851e-07
8.03339e-08
-1.35365e-07
-1.44283e-07
-1.0143e-07
-5.98672e-08
-3.16578e-08
-1.53859e-08
-6.94464e-09
-2.91654e-09
-1.13289e-09
-3.99892e-10
-1.22736e-10
-2.85484e-11
-1.4896e-12
3.75387e-12
3.24894e-12
1.94233e-12
9.89901e-13
4.56622e-13
1.95361e-13
7.83745e-14
2.95927e-14
1.04972e-14
3.46915e-15
1.04734e-15
2.7562e-16
5.44765e-17
1.92354e-18
-6.44483e-18
-3.60304e-18
99.9115
100.05
100.307
99.8527
99.43
100.153
100.903
100.016
98.7046
99.5097
101.659
101.462
98.2455
96.7482
100.974
106.75
103.214
82.9195
49.9206
17.3947
-2.55221
-7.11307
-2.54951
2.4944
3.36961
0.857594
-1.74084
-2.19084
-0.71124
1.02233
1.62245
0.923005
-0.27967
-1.0679
-1.04339
-0.41686
0.310383
0.727344
0.708416
0.382476
-0.0194294
-0.309758
-0.412725
-0.354136
-0.210815
-0.059853
0.0502932
0.104755
0.112391
0.0919833
0.0615835
0.0333272
0.0127702
0.000643559
-0.00482978
-0.00610848
-0.00530414
-0.00382415
-0.00241364
-0.00135441
-0.000671359
-0.000283316
-8.94584e-05
-7.08029e-06
1.93025e-05
2.18093e-05
1.66191e-05
1.06301e-05
6.06472e-06
3.15934e-06
1.51501e-06
6.67386e-07
2.66304e-07
9.26647e-08
2.50553e-08
2.46911e-09
-3.06698e-09
-3.17729e-09
-2.12629e-09
-1.19305e-09
-6.00872e-10
-2.79045e-10
-1.2089e-10
-4.90324e-11
-1.85658e-11
-6.49126e-12
-2.04141e-12
-5.39556e-13
-9.2106e-14
1.37633e-14
2.45946e-14
1.64477e-14
8.63909e-15
4.00319e-15
1.704e-15
6.78229e-16
2.54449e-16
9.0051e-17
3.05239e-17
7.80151e-18
99.985
99.8464
100.195
100.327
99.6667
99.4199
100.379
100.945
99.7615
98.5886
99.7587
101.881
101.284
97.9193
96.7711
101.335
106.943
102.959
82.541
49.9107
17.7793
-2.23095
-7.23474
-2.98531
2.21399
3.53893
1.30907
-1.43991
-2.31434
-1.14545
0.64376
1.59532
1.25429
0.161023
-0.814571
-1.12131
-0.75466
-0.0818169
0.481536
0.703381
0.585851
0.280011
-0.0370639
-0.247877
-0.318881
-0.279351
-0.184109
-0.0829156
-0.00570314
0.0381793
0.0532207
0.0496713
0.0376438
0.0242805
0.0133116
0.00586598
0.00159493
-0.000409937
-0.00106387
-0.00105384
-0.000803173
-0.000527199
-0.000309357
-0.000164276
-7.87101e-05
-3.3302e-05
-1.16603e-05
-2.60149e-06
5.02476e-07
1.14621e-06
9.68615e-07
6.36285e-07
3.64902e-07
1.90116e-07
9.14828e-08
4.08831e-08
1.69261e-08
6.41319e-09
2.15582e-09
5.89853e-10
8.75951e-11
-3.64232e-11
-4.5881e-11
-3.09363e-11
-1.69922e-11
-8.3116e-12
-3.74292e-12
-1.57481e-12
-6.22779e-13
-2.31519e-13
-8.04397e-14
-2.57353e-14
-7.32496e-15
-1.68639e-15
-1.93496e-16
9.51174e-17
9.52282e-17
5.481e-17
2.72125e-17
9.33695e-18
100.067
99.8505
99.8676
100.353
100.263
99.4735
99.4898
100.62
100.913
99.4752
98.531
100.056
102.072
101.05
97.5918
96.8374
101.723
107.125
102.676
82.1448
49.8999
18.1802
-1.87897
-7.33208
-3.43413
1.87856
3.65394
1.765
-1.06197
-2.34325
-1.54989
0.191594
1.43358
1.48405
0.609935
-0.43815
-1.02923
-0.970985
-0.466908
0.124455
0.520472
0.619453
0.478717
0.229201
-0.00683149
-0.159675
-0.215948
-0.198958
-0.144399
-0.0829657
-0.033025
-0.000986894
0.0146418
0.0188027
0.0167119
0.0123005
0.00787799
0.00444069
0.00216956
0.000861588
0.000210014
-5.62145e-05
-0.000127475
-0.000117412
-8.42066e-05
-5.24726e-05
-2.94967e-05
-1.51736e-05
-7.15758e-06
-3.06703e-06
-1.1601e-06
-3.56838e-07
-6.11913e-08
2.47271e-08
3.58491e-08
2.67149e-08
1.60742e-08
8.56562e-09
4.18208e-09
1.89842e-09
8.05505e-10
3.19024e-10
1.16885e-10
3.87422e-11
1.09845e-11
2.19462e-12
-9.08768e-14
-4.28287e-13
-3.17319e-13
-1.76523e-13
-8.55217e-14
-3.78518e-14
-1.56219e-14
-6.0683e-15
-2.22543e-15
-7.69082e-16
-2.4844e-16
-7.38004e-17
-1.9275e-17
-3.34952e-18
100.063
100.025
99.7312
99.9731
100.483
100.119
99.3051
99.6421
100.851
100.8
99.1753
98.5433
100.393
102.219
100.761
97.2709
96.951
102.137
107.291
102.363
81.7304
49.888
18.5978
-1.49471
-7.40133
-3.89179
1.48766
3.70553
2.21138
-0.613712
-2.2655
-1.8958
-0.30743
1.13818
1.57752
1.01117
0.0168968
-0.76936
-1.01594
-0.760574
-0.261031
0.205178
0.471594
0.510632
0.389675
0.206234
0.0392311
-0.0708832
-0.118704
-0.119557
-0.094901
-0.0628432
-0.0344857
-0.0143327
-0.00248656
0.0030275
0.00460591
0.00421242
0.00312733
0.00202653
0.00117494
0.000611967
0.000282302
0.000109883
3.03253e-05
-5.49495e-07
-9.00311e-06
-8.8087e-06
-6.28307e-06
-3.83966e-06
-2.1136e-06
-1.06942e-06
-5.01021e-07
-2.17059e-07
-8.60001e-08
-3.0265e-08
-8.72892e-09
-1.44145e-09
4.93913e-10
7.00585e-10
4.96427e-10
2.83712e-10
1.43853e-10
6.70134e-11
2.91269e-11
1.18868e-11
4.55644e-12
1.63126e-12
5.37494e-13
1.57519e-13
3.73607e-14
4.45351e-15
-2.18896e-15
-2.26397e-15
-1.34833e-15
-6.63539e-16
-2.93128e-16
-1.19527e-16
-4.70368e-17
-1.3836e-17
99.9895
100.152
99.9073
99.669
100.144
100.551
99.9072
99.1923
99.8694
101.045
100.605
98.8825
98.6339
100.758
102.311
100.419
96.9648
97.1158
102.575
107.438
102.019
81.2975
49.8749
19.0321
-1.07657
-7.43851
-4.35352
1.04175
3.68498
2.63263
-0.105783
-2.07322
-2.15441
-0.819129
0.723271
1.51115
1.30818
0.488321
-0.374552
-0.869866
-0.891992
-0.577641
-0.154258
0.191046
0.370819
0.390107
0.305597
0.183226
0.0717474
-0.00522896
-0.0447718
-0.0554977
-0.0493127
-0.0363604
-0.0231455
-0.0127306
-0.00581442
-0.00187323
7.81678e-06
0.000678071
0.000750619
0.000595615
0.000400587
0.000240222
0.000130911
6.51018e-05
2.92962e-05
1.15959e-05
3.71509e-06
6.51972e-07
-2.92797e-07
-4.31397e-07
-3.32434e-07
-2.07067e-07
-1.14159e-07
-5.76025e-08
-2.69859e-08
-1.17966e-08
-4.80248e-09
-1.80241e-09
-6.08164e-10
-1.7288e-10
-3.23706e-11
4.21413e-12
9.00591e-12
6.47586e-12
3.62311e-12
1.78201e-12
8.03473e-13
3.38243e-13
1.3405e-13
5.01303e-14
1.76437e-14
5.79248e-15
1.73835e-15
4.54605e-16
8.89225e-17
2.6549e-18
-1.08525e-17
-6.01307e-18
99.9358
100.103
100.162
99.752
99.6926
100.346
100.531
99.6557
99.1617
100.155
101.175
100.332
98.6194
98.808
101.136
102.337
100.029
96.6828
97.335
103.033
107.563
101.642
80.8457
49.8605
19.4836
-0.622833
-7.4394
-4.81387
0.542368
3.58425
3.01185
0.447019
-1.7638
-2.29895
-1.30348
0.216986
1.27733
1.45173
0.903532
0.0931216
-0.552285
-0.823687
-0.739777
-0.450655
-0.125192
0.121357
0.246929
0.26561
0.217801
0.145052
0.0765662
0.0263954
-0.00312566
-0.0160701
-0.0184602
-0.0156173
-0.0111561
-0.0070139
-0.00392203
-0.00192903
-0.000796392
-0.000232084
4.55573e-06
7.62862e-05
7.81023e-05
5.8163e-05
3.70209e-05
2.1172e-05
1.10982e-05
5.36852e-06
2.39031e-06
9.66075e-07
3.41627e-07
9.47354e-08
1.05575e-08
-1.08677e-08
-1.17983e-08
-8.07712e-09
-4.61804e-09
-2.36833e-09
-1.1205e-09
-4.9521e-10
-2.0538e-10
-7.98279e-11
-2.88491e-11
-9.50899e-12
-2.72943e-12
-5.90471e-13
-2.28682e-14
7.46323e-14
6.02361e-14
3.41577e-14
1.66133e-14
7.34509e-15
3.02415e-15
1.17266e-15
4.30246e-16
1.49192e-16
4.94722e-17
1.23733e-17
99.9538
99.9539
100.222
100.079
99.6078
99.8121
100.537
100.411
99.4
99.231
100.473
101.22
99.996
98.4092
99.0661
101.511
102.287
99.5949
96.4344
97.6116
103.509
107.662
101.23
80.3743
49.8447
19.9523
-0.131701
-7.39947
-5.26668
-0.00773085
3.39622
3.33117
1.02568
-1.34103
-2.30685
-1.71707
-0.339041
0.888154
1.40854
1.19055
0.55023
-0.123385
-0.566373
-0.701289
-0.593259
-0.366425
-0.133692
0.0378135
0.128754
0.151838
0.132752
0.0961759
0.0591335
0.0301088
0.011182
0.000893229
-0.00344535
-0.00438046
-0.00376137
-0.00269067
-0.0017001
-0.000969037
-0.000500197
-0.000231217
-9.22024e-05
-2.81319e-05
-2.7809e-06
4.80992e-06
5.44614e-06
4.0505e-06
2.52533e-06
1.4092e-06
7.22299e-07
3.43764e-07
1.52284e-07
6.2479e-08
2.33739e-08
7.6726e-09
1.97293e-09
1.9405e-10
-2.09973e-10
-2.10838e-10
-1.35795e-10
-7.34379e-11
-3.57566e-11
-1.61157e-11
-6.80921e-12
-2.71101e-12
-1.01699e-12
-3.575e-13
-1.16166e-13
-3.38289e-14
-8.13388e-15
-1.12369e-15
3.31479e-16
3.97676e-16
2.41377e-16
1.18277e-16
5.36537e-17
1.74899e-17
100.015
99.8668
100.057
100.292
99.9183
99.5243
100.015
100.671
100.195
99.181
99.4067
100.79
101.161
99.6155
98.2739
99.4038
101.864
102.155
99.1261
96.2296
97.9476
103.999
107.731
100.782
79.8827
49.827
20.4387
0.398734
-7.31392
-5.705
-0.604403
3.11508
3.57215
1.60707
-0.816023
-2.16231
-2.01646
-0.891696
0.377616
1.16943
1.29136
0.906122
0.324179
-0.183247
-0.475868
-0.543325
-0.453751
-0.295856
-0.140138
-0.0246697
0.0413295
0.0662563
0.0649487
0.05126
0.0348098
0.0206983
0.0106551
0.00448286
0.00120636
-0.000234194
-0.00067461
-0.000660567
-0.000495816
-0.000321821
-0.000188104
-0.000100591
-4.93863e-05
-2.21012e-05
-8.8049e-06
-2.92529e-06
-6.27753e-07
1.07441e-07
2.45497e-07
2.00824e-07
1.2783e-07
7.12807e-08
3.62739e-08
1.71466e-08
7.58471e-09
3.14248e-09
1.213e-09
4.29875e-10
1.35121e-10
3.42116e-11
4.24066e-12
-2.40394e-12
-2.60326e-12
-1.64724e-12
-8.62507e-13
-4.05148e-13
-1.76138e-13
-7.18959e-14
-2.77308e-14
-1.01218e-14
-3.48563e-15
-1.12252e-15
-3.31341e-16
-8.59922e-17
-1.6561e-17
-7.93157e-19
100.056
99.915
99.856
100.206
100.271
99.7179
99.5396
100.268
100.709
99.9064
99.039
99.6814
101.07
100.99
99.2169
98.2333
99.8114
102.175
101.935
98.6325
96.0787
98.3447
104.499
107.765
100.295
79.3702
49.8074
20.943
0.970507
-7.1776
-6.12101
-1.24192
2.73669
3.71636
2.16419
-0.208011
-1.85873
-2.1622
-1.38023
-0.198874
0.755439
1.17559
1.08198
0.684154
0.221555
-0.139082
-0.33282
-0.374414
-0.317637
-0.220166
-0.124033
-0.0507594
-0.00538143
0.016555
0.0228464
0.0207987
0.0156188
0.0102758
0.00604346
0.00317838
0.00146427
0.000552426
0.000128292
-3.39136e-05
-7.34502e-05
-6.56639e-05
-4.59864e-05
-2.81425e-05
-1.56365e-05
-8.0148e-06
-3.80991e-06
-1.67506e-06
-6.7258e-07
-2.38818e-07
-6.84935e-08
-1.01497e-08
5.31556e-09
6.70125e-09
4.72419e-09
2.72936e-09
1.4069e-09
6.68267e-10
2.9679e-10
1.24009e-10
4.8785e-11
1.79871e-11
6.14021e-12
1.88777e-12
4.86937e-13
7.95747e-14
-1.39077e-14
-2.24017e-14
-1.46716e-14
-7.61559e-15
-3.502e-15
-1.48396e-15
-5.89943e-16
-2.21327e-16
-8.05199e-17
-2.21763e-17
100.041
100.035
99.807
99.9424
100.34
100.145
99.5345
99.6706
100.521
100.626
99.583
99.008
100.033
101.275
100.709
98.8315
98.3024
100.274
102.423
101.624
98.1262
95.992
98.8035
105.004
107.761
99.7661
78.8359
49.7855
21.4656
1.5858
-6.98495
-6.50596
-1.91279
2.25904
3.74602
2.66674
0.455194
-1.4013
-2.12374
-1.74217
-0.768341
0.220074
0.852132
1.03228
0.865076
0.532383
0.195182
-0.0525198
-0.184503
-0.219347
-0.19355
-0.142085
-0.0891895
-0.0471396
-0.0191851
-0.00351266
0.0035307
0.00549872
0.00502903
0.00373723
0.0024373
0.00143464
0.000769207
0.000374389
0.000162232
5.91883e-05
1.48245e-05
-1.142e-06
-4.98481e-06
-4.53712e-06
-3.10822e-06
-1.84543e-06
-9.94443e-07
-4.95974e-07