0 	0 	0 	0
1.57135 	-0.0026888 	0.00268101 	0
3.1427 	-0.00563326 	0.00579422 	0
4.71405 	-0.00869323 	0.00943974 	0
6.28539 	-0.0119747 	0.0153196 	0
7.85674 	-0.0115636 	0.0290605 	0
9.42809 	0.0169098 	0.0406426 	0
10.9994 	0.0306131 	0.0079026 	0
12.5708 	0.0130849 	0.000290227 	0
14.1421 	0.5 	0 	0
