/*--------------------------------*- C++ -*----------------------------------*\
  =========                 |
  \\      /  F ield         | OpenFOAM: The Open Source CFD Toolbox
   \\    /   O peration     | Website:  https://openfoam.org
    \\  /    A nd           | Version:  8
     \\/     M anipulation  |
\*---------------------------------------------------------------------------*/
FoamFile
{
    version     2.0;
    format      ascii;
    class       volScalarField;
    location    "0.115";
    object      T;
}
// * * * * * * * * * * * * * * * * * * * * * * * * * * * * * * * * * * * * * //

dimensions      [0 0 0 1 0 0 0];

internalField   nonuniform List<scalar> 
100
(
49.4258
10.3786
0.991337
-0.201313
-0.122094
-0.034678
-0.00729944
-0.00126626
-0.000189962
-2.27775e-05
92.2281
46.2955
16.4443
4.52139
1.0152
0.192894
0.0318119
0.00464083
0.00060842
6.58689e-05
106.099
65.3708
26.6403
8.09075
1.9626
0.397361
0.0692062
0.0105974
0.00145237
0.00016332
109.662
71.9438
30.5808
9.57384
2.37759
0.490732
0.0868832
0.0134982
0.0018744
0.000213131
110.419
73.6624
31.6926
10.0137
2.50538
0.520375
0.0926427
0.0144652
0.00201799
0.000230372
110.555
74.0282
31.9431
10.1166
2.53619
0.527701
0.094097
0.0147141
0.00205559
0.000234955
110.577
74.0943
31.9905
10.1367
2.54237
0.529203
0.0944011
0.014767
0.00206374
0.000235962
110.58
74.1047
31.998
10.1399
2.54333
0.529433
0.0944466
0.0147748
0.00206489
0.0002361
110.58
74.1064
32.0002
10.1413
2.54391
0.529613
0.0944912
0.014784
0.00206654
0.000236332
110.58
74.1056
31.9965
10.1383
2.5425
0.529147
0.0943713
0.0147586
0.00206193
0.000235665
)
;

boundaryField
{
    left
    {
        type            fixedValue;
        value           uniform 100;
    }
    right
    {
        type            zeroGradient;
    }
    up
    {
        type            zeroGradient;
    }
    down
    {
        type            fixedValue;
        value           uniform 0;
    }
    frontAndBack
    {
        type            empty;
    }
}


// ************************************************************************* //
