/*--------------------------------*- C++ -*----------------------------------*\
  =========                 |
  \\      /  F ield         | OpenFOAM: The Open Source CFD Toolbox
   \\    /   O peration     | Website:  https://openfoam.org
    \\  /    A nd           | Version:  8
     \\/     M anipulation  |
\*---------------------------------------------------------------------------*/
FoamFile
{
    version     2.0;
    format      ascii;
    class       volVectorField;
    location    "82";
    object      U;
}
// * * * * * * * * * * * * * * * * * * * * * * * * * * * * * * * * * * * * * //

dimensions      [0 1 -1 0 0 0 0];

internalField   nonuniform List<vector> 
2844
(
(0.997633 0.00206544 2.04939e-05)
(1.01255 -0.0205019 -5.27516e-05)
(1.03848 -0.00404448 -6.50543e-05)
(1.04269 -0.0211019 -0.00010012)
(1.06995 -0.0144572 0.000377018)
(1.06087 -0.00969713 -8.65665e-05)
(1.01027 -0.0133163 0.000415974)
(1.02646 -0.00943478 -0.000407349)
(0.970154 -0.0199757 0.000629734)
(0.978594 -0.0118746 -0.000396945)
(0.935245 -0.0251842 0.000620268)
(0.984072 -0.0294175 0.000714068)
(0.950205 -0.0166458 -0.000979657)
(0.990853 -0.00254777 0.00193805)
(0.983194 -0.00120999 -0.00163865)
(0.937747 -0.00426993 0.000580005)
(0.943871 -0.0136393 0.00178073)
(0.938929 -0.0283401 -0.000606255)
(0.888073 -0.0459076 -0.000404122)
(0.909794 -0.0460318 0.000602566)
(0.991074 -0.00860677 -4.51441e-06)
(1.02069 -0.0177089 0.000126512)
(1.03796 -0.0185343 -0.000255892)
(1.04311 -0.000601527 -0.000568262)
(1.09655 0.00264715 0.0010469)
(1.06675 0.0619523 -0.000435724)
(1.0208 0.0403342 0.00107195)
(1.04371 0.0423215 -0.000261914)
(0.964954 0.0548658 0.000244829)
(0.983724 0.0385232 -0.000176983)
(0.929782 0.0207436 0.00241989)
(0.994859 0.0113269 0.000367264)
(0.989255 0.0187509 -0.000940559)
(1.00636 -0.0351094 0.00411708)
(0.998751 0.0491578 -0.00279765)
(0.923792 0.0334194 0.000348779)
(0.92068 -0.00222583 0.00158413)
(0.924952 0.0779532 -0.00211965)
(0.87243 0.0762078 -0.000915677)
(0.910743 0.0226387 0.00031286)
(0.998755 -0.00347115 -0.000513398)
(1.00637 -0.0738274 0.00296201)
(1.07672 -0.0183237 -0.0017841)
(1.1095 -0.0683655 -0.00385775)
(1.12181 -0.0378788 0.00311339)
(1.10924 0.051669 0.00302757)
(1.0303 -0.00614418 0.00269672)
(1.08666 0.040979 0.00199142)
(0.962774 0.0150913 -9.08283e-05)
(0.959156 0.0117912 0.000939625)
(0.959602 -0.0519145 0.00684516)
(1.00464 -0.0817908 0.011082)
(1.00493 -0.0127846 0.00912099)
(0.954879 -0.0433529 0.00168641)
(1.0553 0.0891793 -0.00176153)
(0.998603 0.0657072 0.00402419)
(0.940868 -0.0295324 0.00200885)
(0.968275 0.023349 0.0026408)
(0.917428 -0.0281014 -0.00209758)
(0.920208 -0.0840537 -0.00365118)
(0.976502 -0.00745498 -0.00168349)
(1.01752 -0.0965428 0.00366926)
(1.10653 -0.0905454 0.0081617)
(1.13555 0.0164058 -0.00621143)
(1.17839 -0.0224853 -0.00230898)
(1.16936 0.119267 0.00457174)
(1.15608 0.0539543 0.00852153)
(1.13888 0.0705923 0.00103051)
(0.948137 0.163722 -0.00280154)
(0.958723 0.0413611 0.0085917)
(0.954162 -0.0539599 0.0151688)
(1.00718 -0.102273 0.0218772)
(1.19259 -0.0011109 0.0191271)
(1.11704 -0.0748865 0.0139382)
(1.12573 0.0135951 0.0128612)
(0.978332 0.0771215 0.00652079)
(0.843323 0.00692804 -0.0106868)
(0.927391 0.0759559 -0.0156347)
(0.867014 0.15728 -0.0143105)
(0.946391 0.0641617 -0.00797757)
(0.944113 0.0113895 -0.00263725)
(1.0645 -0.22345 -0.00723312)
(1.19929 -0.192176 0.0386842)
(1.2029 -0.0530266 0.032725)
(1.34204 -0.060763 -0.00878224)
(1.28905 0.0302396 -0.00916474)
(1.1963 -0.0682249 0.0070757)
(1.12983 0.220932 0.0155975)
(0.939953 0.180752 -0.00168539)
(0.842863 -0.0760333 0.00518722)
(0.843532 -0.227981 0.0223865)
(0.939761 -0.432569 0.0195293)
(1.23229 -0.191803 0.00931123)
(1.12779 -0.103251 0.0283672)
(1.07844 0.130879 0.0116478)
(1.03198 0.29217 -0.0135208)
(1.05261 0.109253 0.0052582)
(0.976555 0.11884 0.0205994)
(0.911206 0.0726156 0.00854789)
(0.9445 -0.0716151 -0.00618394)
(1.00507 -0.00517326 -0.0064097)
(0.904919 -0.196969 0.0110472)
(1.22355 -0.509413 0.00277996)
(1.54085 -0.32499 0.0648575)
(1.5622 -0.0048656 0.0453259)
(1.46255 0.241213 -0.00319321)
(1.31052 0.183399 -0.0108894)
(1.28731 0.169767 -0.0160234)
(1.02439 0.35515 0.00367618)
(1.01436 0.157361 0.0697252)
(0.636621 -0.166464 0.0767947)
(0.450257 -0.531155 0.0365987)
(0.951521 -0.319646 -0.0295749)
(1.16754 -0.213583 -0.0662578)
(1.3964 0.0181683 -0.0253256)
(1.50734 0.166451 0.0371283)
(1.09779 0.0202092 0.0240677)
(1.01219 0.0678586 -0.0261713)
(0.99486 0.265777 -0.0376305)
(0.952278 0.140813 -0.00720859)
(1.1143 0.0940909 -0.0193402)
(1.00689 -0.51283 0.028054)
(1.27994 -0.807347 0.0119281)
(1.68491 -0.782585 -0.0570495)
(2.00641 -0.757922 0.0444147)
(1.3595 0.288014 -0.00590524)
(1.46439 0.148921 -0.0592086)
(1.20315 0.619409 0.00840234)
(1.00381 0.467575 -0.00254295)
(0.704249 -0.207754 0.0769167)
(-0.0973221 -0.487994 0.0792031)
(-0.07673 -1.13675 -0.0307082)
(0.77115 -0.586517 -0.0399495)
(0.958863 -0.0427167 -0.0567169)
(1.10962 0.0471748 0.0167235)
(0.94699 0.154757 0.0401949)
(0.722921 0.267208 -0.0265662)
(0.796682 0.399799 -0.0687502)
(0.59737 0.349052 -0.0249246)
(0.620959 -0.0720323 0.020027)
(1.16911 0.129193 0.0294997)
(0.892404 -0.540726 0.00289161)
(1.8512 -1.46803 0.00462527)
(2.04966 -1.00618 0.0117104)
(2.26383 -0.218221 -0.0167469)
(1.95828 0.233783 0.0251164)
(1.87556 0.671047 0.0681263)
(1.2911 0.583423 -0.0679906)
(1.63993 0.714687 0.00287298)
(1.10543 0.471999 0.13047)
(0.292746 -0.254697 -0.047766)
(0.0619711 -1.10968 -0.148208)
(0.352049 -0.887077 -0.021689)
(0.655782 -0.15531 0.0166354)
(1.12874 -0.206213 0.0208318)
(1.20744 0.200846 -0.00790851)
(0.960036 0.348893 -0.0167867)
(1.04656 0.550847 -0.0172175)
(1.10101 0.558788 0.0330756)
(1.0242 -0.0045588 0.0288108)
(1.06233 -0.168421 0.0130699)
(0.869503 -0.632066 0.0916391)
(1.34465 -2.27503 0.0176243)
(0.567759 0.290519 0.0415753)
(1.3287 0.819668 -0.0371252)
(1.0145 0.758508 0.150288)
(0.49684 0.132853 0.0868765)
(0.204456 -0.219822 -0.0400618)
(0.29266 -0.617184 -0.130433)
(0.438932 -0.945473 -0.0907214)
(0.782869 -0.733645 -0.0063435)
(1.07815 -0.565599 0.0112148)
(1.28418 0.328395 -0.0226162)
(1.09271 0.393548 0.00870858)
(1.11088 0.330057 0.0229048)
(1.13195 0.286476 0.01379)
(1.07746 -0.124521 -0.00309677)
(0.735202 -0.0976703 -0.0301761)
(1.32964 -1.19952 0.0140301)
(-0.500801 -0.818093 -0.543116)
(0.00282295 -0.285748 0.00660934)
(0.644263 0.510047 0.0503391)
(-0.232943 0.467665 0.0515633)
(0.258055 0.121137 0.00598745)
(0.17843 0.282417 0.0298806)
(0.581915 -0.238907 -0.0141314)
(0.545088 -0.497078 -0.0512086)
(0.628713 -0.331997 -0.0310015)
(0.712242 -0.406969 -0.00843265)
(1.01692 0.482575 0.00715391)
(1.23993 0.32695 0.0260408)
(1.22934 0.352262 0.0238829)
(1.12747 0.524431 0.0240215)
(1.07202 0.029906 0.0113996)
(0.632958 0.100952 0.125767)
(-1.17361 0.0431627 -0.017897)
(-0.0588519 -0.455536 0.00514187)
(-0.261043 0.490849 0.0998451)
(-0.0245056 0.487113 0.0130361)
(0.433674 -0.236503 -0.0430748)
(0.701419 -0.243932 0.0190841)
(0.828945 -0.596859 0.0811215)
(0.902431 -0.649064 0.0235551)
(0.967756 -0.702662 -0.0273911)
(0.838921 -0.836037 -0.0463718)
(1.05876 -0.201666 0.00709416)
(1.17805 0.00760796 -0.00734041)
(1.12836 0.367148 -0.0129497)
(1.11081 0.362001 0.00687853)
(1.0571 -0.117626 0.00588118)
(1.42761 0.114298 0.0768731)
(-0.193357 -0.0102838 -0.0795483)
(0.711412 1.28307 -0.0516414)
(-0.12178 -0.182243 0.00439032)
(0.22573 -0.155972 -0.0636734)
(0.733837 0.00786393 0.0326193)
(0.812272 -0.079856 -0.0052727)
(1.30457 -0.106324 -0.0384816)
(1.37686 -0.843515 -0.0253738)
(1.21676 -0.662726 0.00259332)
(1.2695 -0.0525177 0.00990558)
(1.13315 -0.124798 -0.0238473)
(1.007 0.216042 -0.0183698)
(0.945197 0.427742 -0.0155089)
(0.719929 0.662887 -0.0134356)
(1.0038 0.5436 0.00184265)
(1.13499 0.0275507 0.00860659)
(0.956505 0.254112 0.0136896)
(0.921521 0.289351 -0.00117344)
(0.997273 1.13596 0.0181577)
(0.0650407 -0.0820657 0.0213537)
(1.28269 -0.330541 0.0222083)
(0.906337 0.120955 -0.0574488)
(1.3792 -0.0393115 -0.0708425)
(1.51676 -0.579119 -0.0582915)
(1.89471 -0.446524 0.00290454)
(1.72035 -0.492641 0.0264249)
(1.17729 -0.691449 -0.0043062)
(1.30317 -0.556313 0.0307835)
(1.38777 -0.584465 0.012969)
(1.42407 -0.00949596 -0.01234)
(1.06976 0.4949 0.00246201)
(0.799819 0.579373 -0.0104709)
(1.08675 0.0661224 0.00282654)
(1.00133 -0.263819 0.00682837)
(1.01576 0.142077 0.0275431)
(1.0462 0.476896 -0.0128368)
(1.32726 0.375188 0.0108237)
(1.59257 0.332563 0.0820413)
(2.01881 0.040324 0.00731967)
(1.69981 0.117772 -0.0304265)
(1.68126 -0.165381 0.0228518)
(1.32245 0.21744 0.0505999)
(1.63039 0.0967137 -0.00974094)
(1.66072 -0.249209 -0.0502477)
(1.51701 -0.208198 0.0189749)
(1.08672 -0.363459 0.0482519)
(0.668468 -0.441639 -0.0115225)
(0.811186 -0.357561 -0.0378431)
(0.793974 -0.102399 -0.0462942)
(0.850252 0.556823 -0.02568)
(0.74279 0.807242 0.00698319)
(0.839216 0.686486 -0.0132499)
(1.14811 0.399767 -0.0231092)
(1.12725 0.0452514 -0.0107189)
(0.996879 0.0786382 -0.00638035)
(1.11713 0.173929 0.0240088)
(1.14371 0.179591 0.00304033)
(1.29909 -0.0478145 -0.0365018)
(1.45074 -0.16144 -0.0398713)
(1.42149 -0.0666951 0.0248111)
(1.34569 -0.214501 0.0148885)
(1.28147 -0.0162814 -0.0168009)
(1.50697 0.080152 -0.00794917)
(1.44839 -0.225138 0.0218727)
(1.12454 -0.207176 -0.00804272)
(1.29462 -0.176908 0.00586177)
(0.992036 -0.387361 0.0257312)
(0.785279 -0.505512 0.00663476)
(0.67581 -0.214848 -0.0116463)
(0.541329 0.528939 -0.032515)
(0.934011 0.53052 0.0128214)
(0.956729 0.368345 0.0234234)
(1.15743 0.0354335 0.00545868)
(1.28033 -0.168074 -0.000967125)
(1.01458 0.0535625 -0.00191388)
(1.06616 0.146584 0.0159954)
(1.11537 0.172817 -0.00677816)
(1.22904 0.245122 -0.024045)
(1.20611 -0.0279641 -0.00920251)
(1.21742 -0.0483149 0.00898055)
(1.17133 -0.0835107 -0.00766494)
(1.18562 0.117063 -0.0202912)
(1.31934 0.0297554 -0.00128782)
(1.2775 -0.0567098 0.0193908)
(1.00816 -0.0367274 0.0056016)
(1.10447 -0.330844 -0.0155346)
(1.09727 -0.205274 -0.00909494)
(0.899033 -0.108959 0.00129894)
(0.699068 0.152124 0.00334773)
(0.700323 0.636963 -0.000646917)
(1.05268 0.435152 0.0129867)
(1.09563 0.303242 0.0206187)
(1.13377 0.0520831 0.0133734)
(0.99675 -0.0558947 0.00382827)
(0.978364 0.0227806 0.00184685)
(1.03507 0.0287914 0.000493374)
(1.07348 0.126194 -0.00743668)
(1.2167 0.0922235 0.0050962)
(1.13767 -0.0478778 0.00318696)
(1.14423 -0.123288 -0.00863151)
(1.14651 -0.116098 -0.00837048)
(1.16528 0.0272035 0.00450239)
(1.16422 0.00364431 0.00529668)
(1.11353 -0.1283 -0.00295496)
(1.16339 -0.0944568 0.0107403)
(1.01239 -0.156285 0.00397746)
(0.791588 -0.153185 -0.00311876)
(0.822769 -0.161295 -0.00757435)
(0.733426 -0.0509595 0.00412629)
(0.856859 0.316355 0.0122725)
(1.06856 0.214183 0.00537002)
(1.12464 0.149502 0.00625706)
(1.2332 -0.00253376 -0.00299391)
(1.1443 -0.0864249 -0.00203608)
(0.99122 0.0231763 -0.000178981)
(1.02535 0.0329115 -0.00132871)
(1.05032 0.0824134 0.00137638)
(1.14327 0.115039 0.0022385)
(1.12395 0.0170976 -0.000862269)
(1.13761 -0.00976244 -0.00254955)
(1.0761 -0.0204442 -0.0020313)
(1.07645 0.0352118 0.00258218)
(1.1102 0.0190185 0.00301789)
(1.07755 -0.0315493 0.0023985)
(1.01758 -0.0530731 0.00111)
(1.03506 -0.069891 -0.00227518)
(0.931701 -0.0418534 0.00455378)
(0.907334 -0.0249172 -0.000711514)
(0.826098 0.0568176 0.00307701)
(0.886405 0.190886 0.0120936)
(1.00343 0.13683 0.00444305)
(1.07242 0.111511 0.00579831)
(1.11596 0.068929 0.00143826)
(1.06145 0.0253722 -0.000207409)
(0.991839 0.00919216 -0.000330395)
(1.03303 0.0124199 5.96024e-05)
(1.0057 0.0258626 0.000286176)
(1.10749 0.0248641 0.00054969)
(1.0904 -0.0209306 -0.000273949)
(1.11736 -0.0532786 -0.000361664)
(1.05155 -0.0481417 0.00127547)
(1.06312 -0.0121558 -0.000512373)
(1.06968 -0.0260381 0.00143863)
(1.04032 -0.0584883 0.000302078)
(1.01707 -0.0560533 -0.000227221)
(0.964512 -0.0757849 0.00117041)
(0.900074 -0.0696068 -0.000611542)
(0.892301 -0.0709749 -0.00104426)
(0.843736 -0.0475495 0.000762496)
(0.907967 0.0459569 0.0033701)
(0.972971 0.027605 0.000882088)
(1.00818 0.0175222 9.87958e-05)
(1.06108 -0.0105244 0.000666203)
(1.04355 -0.0407654 0.000644279)
(0.989918 0.00566753 -0.000221653)
(1.02925 0.00682955 0.000202793)
(1.01175 0.0206134 -7.67698e-05)
(1.09408 0.028341 0.000165191)
(1.07481 0.0202358 4.815e-05)
(1.10024 0.0183084 -0.000240947)
(1.03958 0.0125376 0.000390834)
(1.05301 0.0188795 -0.000473245)
(1.05382 0.017732 0.000517129)
(1.03045 0.00940902 -0.000185654)
(1.00462 0.00427738 -0.000137691)
(0.966873 0.00645215 0.000402686)
(0.914197 0.0160155 -0.000465908)
(0.908638 0.0261465 -0.000385399)
(0.862034 0.0390423 0.000702487)
(0.899777 0.0440965 0.000594483)
(0.960208 0.0446454 -0.000204606)
(0.99225 0.0425068 0.000249159)
(1.03834 0.0365034 0.000137701)
(1.02567 0.0309549 -9.19011e-05)
(0.997679 0.00208278 6.96619e-05)
(1.01236 -0.0204634 -0.000190955)
(1.03854 -0.0041845 -0.000103655)
(1.04282 -0.0211969 -9.80588e-05)
(1.06993 -0.0141609 0.000612999)
(1.06093 -0.00966779 -0.000170895)
(1.01046 -0.0136339 0.000607646)
(1.02598 -0.00868506 -0.000744275)
(0.970924 -0.0207851 0.00109415)
(0.977692 -0.0113022 -0.000624752)
(0.936137 -0.0249639 0.000893881)
(0.983678 -0.0294349 0.00109899)
(0.949559 -0.0169027 -0.00187468)
(0.992524 -0.00212275 0.00317346)
(0.98117 -0.000558826 -0.00281432)
(0.93912 -0.00404253 0.00092553)
(0.945078 -0.0136516 0.00301621)
(0.937898 -0.0279055 -0.00111216)
(0.888414 -0.0447389 -0.000943565)
(0.910641 -0.0447738 0.000824608)
(0.991228 -0.00833121 0.000127143)
(1.02009 -0.0181071 -0.000165619)
(1.03804 -0.0191932 -0.000508864)
(1.04344 -0.00131283 -0.00075953)
(1.09715 0.00567917 0.00165426)
(1.06571 0.0609599 -0.000937887)
(1.02218 0.0448921 0.00176852)
(1.04191 0.0376231 -0.000514833)
(0.967737 0.0617296 0.000343206)
(0.980908 0.0344997 -0.000442775)
(0.93049 0.02539 0.00375344)
(0.996455 0.0195202 2.95897e-06)
(0.982957 0.00875493 -0.00241037)
(1.01449 -0.0171685 0.00733018)
(0.99344 0.0349983 -0.00510721)
(0.926628 0.0357955 -0.000132628)
(0.926862 0.0158469 0.00273811)
(0.923883 0.0729187 -0.00348148)
(0.872902 0.0698127 -0.0017614)
(0.913272 0.0264826 0.000332133)
(1.00029 -0.00324226 -0.000182206)
(1.00025 -0.0723695 0.00358293)
(1.08006 -0.0214537 -0.00363168)
(1.11548 -0.0737562 -0.00606339)
(1.11662 -0.0265355 0.00540037)
(1.10973 0.0474232 0.00511236)
(1.03231 0.00285731 0.00169986)
(1.07726 0.0381323 0.00201961)
(0.970272 0.017286 0.00155559)
(0.955021 0.0129209 0.000222282)
(0.960566 -0.0325749 0.00949933)
(1.00304 -0.0716125 0.0136992)
(0.991939 -0.0275531 0.0101528)
(0.967823 -0.00549053 0.000966943)
(1.04165 0.0690667 -0.00436678)
(0.993916 0.0589404 0.00947165)
(0.949008 -0.0108694 0.00483116)
(0.965864 0.0100093 0.00395339)
(0.911973 -0.0372008 -0.00817478)
(0.921937 -0.0805363 -0.0103403)
(0.983916 -0.00850109 -0.000817401)
(0.995742 -0.0704398 0.0041819)
(1.11043 -0.11505 0.00886472)
(1.16796 -0.0101654 -0.0112979)
(1.16456 0.0131964 0.000247853)
(1.15298 0.140041 0.00508413)
(1.13618 0.0915706 0.0194142)
(1.13312 0.0801675 -0.00150376)
(0.943681 0.167039 -0.0120925)
(0.965393 0.051313 0.014671)
(0.963922 0.00792071 0.0243135)
(1.01252 0.0216917 0.026343)
(1.14363 0.0579562 0.0189045)
(1.09411 -0.0378674 0.0206527)
(1.10453 -0.00135552 0.0142531)
(0.997124 0.0992945 -0.00166521)
(0.90735 0.0455005 -0.0235257)
(0.935041 0.105679 -0.0256234)
(0.860395 0.128943 -0.0300732)
(0.941441 0.031871 -0.02018)
(0.956311 0.00744 0.00168672)
(1.05665 -0.181857 -0.020849)
(1.16194 -0.159024 0.0615627)
(1.28416 -0.0958636 0.0505642)
(1.34333 -0.0208337 -0.0188639)
(1.24162 0.0715635 0.00380578)
(1.17245 0.00451003 -0.00579093)
(1.11804 0.214878 0.0149873)
(0.965885 0.146817 0.0161031)
(0.894381 -0.00520173 -0.00911021)
(0.971273 -0.053206 -0.00158197)
(1.09627 -0.161671 0.0169277)
(1.21191 -0.0165626 0.0447192)
(1.08234 0.0310616 0.0559759)
(1.0813 0.195406 0.00168024)
(1.02089 0.273544 -0.0201755)
(0.901336 0.0434333 0.0168556)
(0.87242 0.0377709 0.014337)
(0.854625 -0.0389651 -0.0246138)
(0.883172 -0.14171 -0.0241458)
(0.959143 -0.0287199 -0.00483001)
(1.01791 -0.195949 0.0214749)
(1.23791 -0.229652 -0.00844794)
(1.44024 -0.0630667 0.121517)
(1.63281 0.0732898 0.122667)
(1.39744 0.247474 -0.0119461)
(1.25615 0.262433 -0.0160753)
(1.2909 0.28755 -0.0316094)
(0.942466 0.300525 -0.0334292)
(0.857848 0.125805 0.0660217)
(1.02014 -0.0267167 0.123435)
(1.08882 -0.105269 0.0897898)
(1.37169 0.0122951 -0.00576034)
(1.2847 0.125242 -0.0843993)
(1.20767 0.0924145 -0.0301797)
(1.37989 0.180913 0.0916296)
(1.23044 0.177078 0.0555411)
(1.18794 0.221129 -0.0555967)
(0.913308 0.233345 -0.0473316)
(0.840674 0.0286011 0.0124161)
(1.05664 -0.0092156 -0.0504057)
(0.958474 -0.40946 0.0746164)
(1.44717 -0.610337 -0.0226602)
(1.68765 -0.320675 -0.140268)
(1.82087 -0.173468 -0.00633591)
(1.66295 0.346654 0.0595921)
(1.46218 0.167384 -0.0712415)
(1.15943 0.506949 -0.0168719)
(1.0876 0.608791 0.00602263)
(1.02432 0.117136 0.113014)
(0.785216 -0.205284 0.165142)
(0.685163 -0.403837 0.0133608)
(1.2583 -0.202062 -0.0615199)
(1.27106 0.119071 -0.060107)
(1.08588 0.0642389 0.0584014)
(1.04399 0.224873 0.0535363)
(0.969982 0.270302 -0.0385997)
(0.901822 0.296927 -0.061631)
(0.516438 0.115149 -0.0105574)
(0.573171 -0.197405 0.0280845)
(1.15394 0.00700339 0.0169602)
(1.07557 -0.437933 -0.0569026)
(1.72562 -1.0879 -0.147868)
(1.85398 -0.710324 -0.0309433)
(2.07477 0.11667 -0.0281302)
(2.01433 0.335946 0.0221724)
(1.83886 0.399275 0.101037)
(1.7488 0.70489 0.0884899)
(1.20357 0.486739 -0.0751777)
(1.39375 0.350949 0.107851)
(1.37461 0.499926 0.211821)
(0.671953 -0.120821 -0.0102527)
(0.674415 -0.326301 -0.0264798)
(0.951176 0.104324 0.0194702)
(1.34383 0.113031 0.0277097)
(1.27659 0.367864 -0.0169651)
(1.03568 0.327808 0.00923489)
(1.04183 0.379229 -0.00350203)
(1.13742 0.445865 0.00477595)
(1.06174 0.048082 0.0155882)
(0.829428 -0.0770805 0.000285025)
(1.71413 -0.777327 0.0134746)
(1.8525 -1.73609 -0.0117802)
(0.523837 0.118335 0.283669)
(0.945387 0.695427 -0.198821)
(1.20837 0.925227 0.102187)
(1.08098 0.576847 0.221945)
(0.574552 0.348535 -0.054772)
(0.367171 -0.419739 -0.245615)
(0.529338 -0.603723 -0.180933)
(0.911719 -0.399372 -0.100007)
(1.26161 -0.258249 -0.0763386)
(1.2166 0.463126 -0.0464402)
(0.993715 0.473991 0.0453063)
(1.12717 0.273685 0.0222452)
(1.18185 0.269735 -0.000500835)
(1.08188 -0.0642424 0.0016342)
(0.166488 -0.193001 -0.0467787)
(1.32843 -1.22937 -0.20978)
(0.827487 -1.00361 -0.388432)
(-0.0386029 -0.237378 0.0449367)
(0.681995 0.391158 0.0257586)
(0.157876 0.611964 0.130544)
(0.199606 0.391164 0.00823489)
(0.171717 0.276271 -0.112768)
(0.576236 -0.642268 -0.114202)
(0.621611 -0.858596 -0.0832642)
(0.7168 -0.365839 -0.0348034)
(0.909212 -0.12565 -0.0248359)
(1.07251 0.607926 0.0210374)
(1.27552 0.4356 0.0365604)
(1.32085 0.2945 -0.00261452)
(1.10914 0.440265 0.00561033)
(1.07968 0.0327138 0.00801459)
(0.977592 -0.104087 0.142896)
(-0.434638 -0.73261 0.0125653)
(-0.0513598 -0.451773 0.0515838)
(0.0810048 0.436298 0.0243352)
(-0.0347295 0.768097 -0.0442059)
(0.296826 0.0216997 -0.0896137)
(0.44006 -0.0163452 0.00551276)
(1.08289 -0.35855 0.101243)
(1.25755 -0.614167 -0.00902319)
(1.0685 -0.660607 -0.0384241)
(0.921665 -0.613854 -0.0392237)
(1.2188 0.0850431 -0.000850505)
(1.34448 0.293926 -0.0543417)
(1.15972 0.492221 -0.0770528)
(1.01307 0.50549 -0.0115802)
(1.08508 -0.048152 0.0101683)
(1.36399 0.198421 0.140808)
(0.239577 0.198881 -0.340048)
(0.37302 1.30062 -0.34369)
(-0.201632 -0.067609 0.080357)
(-0.164288 0.241484 -0.223862)
(0.454411 0.425663 0.0240899)
(0.953126 -0.0179443 -0.0532823)
(1.34075 -0.12382 -0.0813831)
(1.36795 -0.895546 0.027603)
(1.31833 -0.708436 -0.00135197)
(1.31643 -0.112798 -0.0380968)
(1.09899 -0.252997 -0.00799182)
(0.862277 0.370708 -0.00629202)
(0.8684 0.518741 -0.0650552)
(0.64973 0.600466 -0.0532964)
(0.870363 0.434123 -0.00989703)
(1.07468 -0.0430164 0.00843466)
(0.951106 0.0842587 -0.00376113)
(1.0439 0.289223 0.0149246)
(0.841673 -0.0240748 0.0532104)
(0.12593 -0.156404 0.192632)
(1.51378 -0.552088 0.0376559)
(1.14264 0.0899697 -0.13645)
(1.47126 -0.048201 -0.0965991)
(1.43216 -0.516725 -0.0193979)
(1.80573 -0.405083 -0.0131072)
(1.70838 -0.567028 0.0240306)
(1.11846 -0.693634 0.0340511)
(1.38968 -0.36071 0.0242447)
(1.66311 -0.470947 -0.0339518)
(1.38388 0.0817274 -0.0287466)
(1.09653 0.5197 0.0124471)
(0.843827 0.578508 -0.0170806)
(1.11014 0.161531 -0.0125817)
(1.07566 -0.203175 0.00869903)
(1.09154 0.185677 0.0363028)
(1.05867 0.229689 -0.00865196)
(1.32408 0.441121 -0.0308018)
(1.68875 0.340553 0.0600997)
(1.9442 -0.0687339 0.128634)
(1.66451 0.0931303 -0.0600293)
(1.45917 -0.311884 0.0534387)
(1.30612 0.142484 -0.0072364)
(1.82033 0.0564508 -0.0915457)
(1.60885 -0.446512 -0.0454899)
(1.32303 -0.241813 0.0412363)
(1.2453 -0.314039 0.0467275)
(0.925659 -0.559423 -0.00613636)
(1.01899 -0.335042 -0.0121343)
(0.956551 -0.0350152 -0.0826029)
(0.730705 0.641505 -0.104918)
(0.744378 0.768967 -0.0045517)
(0.885283 0.511573 -0.00872914)
(1.18616 0.265705 -0.0304267)
(1.18347 0.00792658 -0.014854)
(1.03011 0.108509 0.00167116)
(1.07156 0.0480499 0.0113611)
(1.16946 0.193267 0.00476786)
(1.3829 0.121637 -0.0480353)
(1.38313 -0.019857 -0.0610014)
(1.48317 -0.0398824 0.038989)
(1.48194 -0.155747 0.00468469)
(1.25768 -7.57114e-05 -0.0142473)
(1.4321 -0.00774253 -0.0134518)
(1.38177 -0.298914 0.0114943)
(1.05067 -0.231125 0.00657575)
(1.26525 -0.130216 0.0161903)
(1.08062 -0.393995 0.0161092)
(0.799707 -0.468262 -0.00838334)
(0.755391 -0.214033 -0.0218671)
(0.544402 0.454586 -0.0873926)
(0.892189 0.452854 -0.0196279)
(1.03437 0.231256 0.0337705)
(1.19204 -0.0939179 0.0204653)
(1.21077 -0.22807 -0.00148868)
(1.00825 0.0583448 0.00217354)
(1.08146 0.130196 0.0181504)
(1.12298 0.192752 -0.012572)
(1.21616 0.211221 -0.0369808)
(1.18068 -0.0172863 -0.0137251)
(1.24757 0.0129159 0.019536)
(1.25091 -0.0451701 -0.0122027)
(1.19788 0.0655627 -0.0323239)
(1.23296 -0.0359092 0.00607421)
(1.22506 -0.0462345 0.0339804)
(1.07419 -0.113592 0.00835378)
(1.08261 -0.330209 -0.0183991)
(1.03123 -0.171147 -0.00217345)
(0.839101 -0.0536474 -0.00609327)
(0.680073 0.11262 0.00117311)
(0.716399 0.476601 -0.0113399)
(1.02558 0.379453 0.00201128)
(1.13051 0.250742 0.0315437)
(1.20817 0.0714508 0.0248574)
(1.04821 -0.0305203 0.00767918)
(0.976855 0.0303789 0.00462186)
(1.05786 0.0336089 -0.00108435)
(1.05989 0.105844 -0.0135799)
(1.18457 0.0748652 0.0103101)
(1.15614 -0.031577 0.00545199)
(1.16514 -0.101271 -0.0162154)
(1.14976 -0.109944 -0.0148656)
(1.15587 0.00803934 0.00862259)
(1.16039 -0.0301383 0.0084996)
(1.09726 -0.143271 -0.00468135)
(1.14001 -0.104243 0.0190964)
(1.03157 -0.144194 0.00163099)
(0.825398 -0.183582 -0.00547585)
(0.833503 -0.14763 -0.00640551)
(0.738513 -0.0897653 0.0157056)
(0.870716 0.193281 0.0322104)
(1.05236 0.181984 0.0180206)
(1.12597 0.0954711 0.0123228)
(1.21227 -0.0237244 -0.00663586)
(1.13903 -0.0855072 -0.00429655)
(0.99174 0.0266182 -0.000196066)
(1.03027 0.0317218 -0.00275551)
(1.04503 0.0793042 0.00272237)
(1.13719 0.109645 0.00393509)
(1.12471 0.0195356 -0.00140611)
(1.14134 -0.00757762 -0.00492372)
(1.07132 -0.030815 -0.00392895)
(1.06999 0.039796 0.00449228)
(1.10481 0.00513983 0.00469553)
(1.07371 -0.0328037 0.0035929)
(1.01892 -0.050182 0.00240817)
(1.02717 -0.0822855 -0.00371011)
(0.930537 -0.0344191 0.00708395)
(0.907695 -0.0155769 0.000157312)
(0.828557 0.0480813 0.00771987)
(0.883878 0.158198 0.0271562)
(0.99872 0.129538 0.013135)
(1.07471 0.111723 0.0116126)
(1.11317 0.0635738 0.0027234)
(1.05676 0.0195891 -0.000492569)
(0.992328 0.0113315 -0.000673514)
(1.03291 0.0102671 0.000173299)
(1.00552 0.0268221 0.000450739)
(1.10708 0.0228533 0.00102012)
(1.08992 -0.0210152 -0.000695461)
(1.11778 -0.0507555 -0.000659513)
(1.0501 -0.0521186 0.00238719)
(1.06447 -0.00714222 -0.00151421)
(1.06866 -0.0320467 0.00263777)
(1.03848 -0.0561392 0.000496503)
(1.01864 -0.0544605 -0.000735636)
(0.963687 -0.0803494 0.00240551)
(0.899357 -0.0646718 -0.00129914)
(0.893671 -0.0670141 -0.00192982)
(0.8436 -0.0552497 0.00181471)
(0.90661 0.0406198 0.00633079)
(0.972756 0.0305003 0.00195811)
(1.00795 0.0143914 5.4995e-05)
(1.06087 -0.0122385 0.00117092)
(1.04364 -0.0397028 0.00107524)
(0.989886 0.0055587 -0.000459402)
(1.02941 0.00708166 0.000440274)
(1.0116 0.0204384 -0.000197817)
(1.09437 0.0285127 0.000320104)
(1.07431 0.0199561 0.000108727)
(1.10059 0.0182945 -0.000507975)
(1.03939 0.012788 0.000785463)
(1.05309 0.0182506 -0.00107506)
(1.05415 0.0184301 0.00101793)
(1.02994 0.00874325 -0.000460237)
(1.00502 0.00435322 -0.000296989)
(0.966862 0.00675184 0.000838454)
(0.913777 0.015636 -0.00107403)
(0.909195 0.0262432 -0.000751574)
(0.86224 0.0393977 0.00150424)
(0.899236 0.0435476 0.00102176)
(0.960321 0.044196 -0.000427979)
(0.992428 0.0432405 0.000394604)
(1.03824 0.036758 0.000173641)
(1.02563 0.0307036 -0.00025736)
(0.997705 0.00212109 4.89722e-05)
(1.01217 -0.020495 -0.000138229)
(1.03864 -0.0043551 -3.79022e-05)
(1.0429 -0.0212224 -3.97275e-07)
(1.0699 -0.0139017 0.000240943)
(1.06101 -0.00972822 -8.98009e-05)
(1.0106 -0.0138934 0.000201122)
(1.02567 -0.00801351 -0.000349149)
(0.971488 -0.0215475 0.000482481)
(0.976987 -0.0109423 -0.00025081)
(0.936687 -0.0247278 0.00030274)
(0.983397 -0.0298131 0.000368147)
(0.94923 -0.0169349 -0.000896549)
(0.993604 -0.00219266 0.00126234)
(0.979838 -0.00012706 -0.00120397)
(0.940063 -0.00432103 0.000368461)
(0.945744 -0.0143087 0.00124271)
(0.937081 -0.0277526 -0.000514579)
(0.888516 -0.0439851 -0.000531274)
(0.911159 -0.0441396 0.000225392)
(0.991265 -0.00776643 0.000128241)
(1.01967 -0.0194845 -0.000284741)
(1.03811 -0.0195953 -0.000259712)
(1.04346 -0.00121047 -0.000198867)
(1.09755 0.00751924 0.000642858)
(1.06503 0.0601057 -0.000503684)
(1.02325 0.0472336 0.000709038)
(1.04103 0.0335736 -0.000232184)
(0.969263 0.0670453 8.96453e-05)
(0.978609 0.0317416 -0.000275148)
(0.930748 0.0274477 0.00147141)
(0.998069 0.0237072 -0.000451254)
(0.978704 -0.000586529 -0.00128368)
(1.01994 -0.00536916 0.00307625)
(0.989791 0.0242948 -0.00236155)
(0.928953 0.0375664 -0.000408504)
(0.931233 0.0288233 0.000993038)
(0.923299 0.0685279 -0.00149595)
(0.873121 0.0629275 -0.000920378)
(0.915124 0.0272417 -0.000127137)
(1.00063 -0.00157075 0.000359478)
(0.996473 -0.0753776 0.000568294)
(1.08404 -0.0245312 -0.00188558)
(1.11791 -0.0760684 -0.00218825)
(1.11126 -0.0199146 0.00221372)
(1.11138 0.042521 0.00205441)
(1.03889 0.00912957 -0.000815889)
(1.06726 0.0362177 0.000251342)
(0.978623 0.0180134 0.00100835)
(0.95146 0.0118591 -0.000433577)
(0.958322 -0.0226004 0.00296289)
(1.00695 -0.072267 0.00333016)
(0.985687 -0.0431805 0.00191671)
(0.985791 0.0220393 -0.00116612)
(1.0311 0.04991 -0.00229692)
(0.987936 0.0474574 0.00560306)
(0.956782 -0.000346303 0.00201611)
(0.963363 0.000307036 0.00131871)
(0.902469 -0.0457393 -0.00624116)
(0.922003 -0.0820475 -0.00703354)
(0.984875 -0.00240242 0.00107536)
(0.986363 -0.0703242 -0.000105023)
(1.12051 -0.138363 0.000796151)
(1.18097 -0.0231766 -0.00546726)
(1.15552 0.034712 0.00100541)
(1.14094 0.148324 0.00136706)
(1.11994 0.094875 0.0107067)
(1.14787 0.0772915 -0.00243437)
(0.94547 0.178144 -0.00721755)
(0.94599 0.0516487 0.0075804)
(0.959997 0.0243927 0.00851608)
(1.03007 0.0523428 0.00443)
(1.1111 0.0488575 0.0019689)
(1.08443 -0.0334112 0.00880203)
(1.08804 -0.0131017 0.00247767)
(1.00668 0.135561 -0.00712631)
(0.932255 0.0758165 -0.0122068)
(0.933038 0.126498 -0.0130518)
(0.834047 0.0590083 -0.0183525)
(0.92035 -0.0392647 -0.0116918)
(0.956628 0.0236327 0.00380517)
(1.05243 -0.194586 -0.0123818)
(1.16553 -0.176236 0.0208176)
(1.33712 -0.141655 0.0186834)
(1.30913 0.0188254 -0.0119022)
(1.1986 0.0803885 -0.00121475)
(1.20324 0.0902691 -0.0159362)
(1.09247 0.174217 0.00026832)
(0.969075 0.100917 0.0109999)
(0.958625 0.0516284 -0.0108828)
(1.02012 0.0011086 -0.0135683)
(0.989491 -0.109739 0.00206102)
(1.09444 -0.00563631 0.0297987)
(1.1305 0.118679 0.0157509)
(1.11232 0.177097 -0.011024)
(1.05048 0.156793 -0.00476702)
(0.835511 -0.0558072 0.0106438)
(0.866244 -0.0429453 -0.00936561)
(0.733433 -0.196063 -0.0173389)
(0.776791 -0.262316 -0.00522787)
(0.891336 0.0195218 -0.00167235)
(1.14233 -0.318863 0.0115662)
(1.27641 -0.134214 0.00565619)
(1.31252 0.106389 0.0294667)
(1.63 0.0481025 0.0748442)
(1.43861 0.241003 0.0072871)
(1.26533 0.112267 -0.0284124)
(1.31941 0.306871 -0.0189265)
(1.05161 0.369133 -0.0344592)
(0.85696 -0.0216092 0.00667354)
(1.13688 -0.0429593 0.0504413)
(1.27588 0.04869 0.032808)
(1.62748 0.143424 -0.00385124)
(1.28722 0.166218 -0.0524073)
(0.997262 -0.00337587 0.00540827)
(1.32012 0.243466 0.0671472)
(1.26581 0.342114 0.00308736)
(1.06671 0.208763 -0.0376442)
(0.576414 0.0330872 0.00268764)
(0.680547 -0.140504 0.023279)
(0.92157 -0.0380944 -0.0335417)
(1.10898 -0.433549 0.0420472)
(1.45638 -0.396631 -0.00147672)
(1.61856 -0.0240429 -0.0694825)
(1.55622 0.367617 -0.0874943)
(1.70557 0.322455 -0.00752767)
(1.67595 0.0645424 0.0191195)
(1.50127 0.202165 -0.0203363)
(1.22961 0.24624 -0.0327096)
(1.16368 0.174141 0.0864309)
(1.53344 0.129497 0.033663)
(1.48208 -0.149586 -0.100769)
(1.46435 0.00127002 -0.0973694)
(0.967989 0.176478 -0.00820664)
(0.864784 0.104114 0.0613757)
(0.966322 0.436325 0.0150483)
(0.922062 0.303786 -0.0256879)
(0.802931 0.181767 -0.00828256)
(0.484567 -0.0249645 0.000462325)
(0.545425 -0.264543 0.00841137)
(1.09748 -0.251078 -0.0192163)
(1.05323 -0.283946 -0.0393477)
(1.64997 -0.692494 -0.163544)
(1.82373 -0.287775 -0.0863383)
(1.89298 0.380931 0.030203)
(1.84786 0.329119 -0.0208926)
(1.32183 0.0714992 0.107017)
(2.0004 0.619015 0.0606451)
(1.36182 0.535477 -0.0226174)
(1.32494 0.332618 -0.031759)
(1.5787 0.300715 -0.0461866)
(1.30329 -0.102657 0.0421846)
(1.05973 0.0146806 0.0181103)
(1.12804 0.422621 0.0307689)
(1.59101 0.353855 0.0439791)
(1.50305 0.412824 -0.013747)
(1.25189 0.292639 -0.0290934)
(1.124 0.336783 -0.0362201)
(1.08918 0.231012 -0.00847265)
(0.956447 -0.055196 0.0139919)
(1.3117 -0.26179 -0.0268857)
(1.37603 -0.547674 -0.219826)
(1.80184 -1.77021 0.193995)
(0.366887 -0.0119362 0.25392)
(0.848444 0.582529 -0.134663)