0 	-2.24528e-09
1.57135 	-0.000193859
3.1427 	-0.000385191
4.71405 	-0.00257509
6.28539 	-0.00667871
7.85674 	-0.0100381
9.42809 	-0.00875353
10.9994 	-0.00452215
12.5708 	0.0171741
14.1421 	0.0528754
