/*--------------------------------*- C++ -*----------------------------------*\
  =========                 |
  \\      /  F ield         | OpenFOAM: The Open Source CFD Toolbox
   \\    /   O peration     | Website:  https://openfoam.org
    \\  /    A nd           | Version:  8
     \\/     M anipulation  |
\*---------------------------------------------------------------------------*/
FoamFile
{
    version     2.0;
    format      ascii;
    class       surfaceScalarField;
    location    "49";
    object      phi;
}
// * * * * * * * * * * * * * * * * * * * * * * * * * * * * * * * * * * * * * //

dimensions      [0 3 -1 0 0 0 0];

internalField   nonuniform List<scalar> 
880
(
-1.74464e-05
1.74464e-05
-3.65019e-05
1.90556e-05
-5.49367e-05
1.84347e-05
-7.23646e-05
1.74279e-05
-8.84483e-05
1.60837e-05
-0.000102856
1.44075e-05
-0.000115354
1.24978e-05
-0.0001255
1.01465e-05
-0.000133585
8.08508e-06
-0.000138287
4.70214e-06
-0.000142247
3.95934e-06
1.53434e-06
-0.000143781
-1.97237e-05
3.71701e-05
-4.11737e-05
4.05056e-05
-6.19263e-05
3.91873e-05
-8.15604e-05
3.7062e-05
-9.97276e-05
3.42509e-05
-0.00011609
3.07703e-05
-0.000130385
2.67923e-05
-0.000142198
2.19596e-05
-0.000151831
1.77178e-05
-0.000158345
1.12167e-05
-0.000164119
9.73274e-06
4.40471e-07
-0.000163025
-2.04614e-05
5.76315e-05
-4.2718e-05
6.27622e-05
-6.42229e-05
6.06921e-05
-8.44996e-05
5.73388e-05
-0.000103108
5.28594e-05
-0.000119637
4.72995e-05
-0.00013372
4.08749e-05
-0.000145111
3.33509e-05
-0.000153262
2.58685e-05
-0.000158218
1.61731e-05
-0.000158464
9.97846e-06
-2.63579e-06
-0.000155388
-2.15115e-05
7.9143e-05
-4.49456e-05
8.61964e-05
-6.764e-05
8.33866e-05
-8.91761e-05
7.88748e-05
-0.000109229
7.29127e-05
-0.000127395
6.54652e-05
-0.000143193
5.66731e-05
-0.000156269
4.6427e-05
-0.000165877
3.54757e-05
-0.000171932
2.22289e-05
-0.000172468
1.05136e-05
-6.34472e-06
-0.000168759
-2.29134e-05
0.000102056
-4.7901e-05
0.000111184
-7.20614e-05
0.000107547
-9.48547e-05
0.000101668
-0.000115743
9.38006e-05
-0.000134344
8.40666e-05
-0.000150338
7.26671e-05
-0.000163452
5.9541e-05
-0.000173162
4.51853e-05
-0.000179673
2.87404e-05
-0.000181673
1.25138e-05
-7.80458e-06
-0.000180214
-2.47439e-05
0.0001268
-5.17899e-05
0.00013823
-7.80359e-05
0.000133793
-0.000103119
0.000126751
-0.000126728
0.00011741
-0.000148282
0.00010562
-0.000167275
9.16599e-05
-0.000183198
7.54642e-05
-0.000195335
5.73224e-05
-0.00020339
3.67954e-05
-0.000205702
1.48261e-05
-1.03367e-05
-0.00020317
-2.68631e-05
0.000153663
-5.63144e-05
0.000167681
-8.47325e-05
0.000162211
-0.000111592
0.00015361
-0.000136276
0.000142094
-0.000158561
0.000127905
-0.000178096
0.000111195
-0.000194597
9.19647e-05
-0.000207773
7.04985e-05
-0.000217478
4.65009e-05
-0.000223624
2.09723e-05
-8.74296e-06
-0.000225218
-2.97571e-05
0.00018342
-6.24544e-05
0.000200379
-9.43399e-05
0.000194097
-0.000124865
0.000184135
-0.000153784
0.000171013
-0.000180322
0.000154443
-0.000204254
0.000135127
-0.000224917
0.000112627
-0.000241827
8.74084e-05
-0.00025416
5.88337e-05
-0.000261327
2.814e-05
-8.6527e-06
-0.000261418
-3.19564e-05
0.000215377
-6.78275e-05
0.00023625
-0.000101628
0.000227897
-0.000134907
0.000217414
-0.000164956
0.000201063
-0.000192841
0.000182328
-0.000217497
0.000159783
-0.000238899
0.00013403
-0.000257125
0.000105634
-0.000271375
7.30835e-05
-0.000283717
4.04823e-05
-1.88014e-06
-0.00029049
-3.74553e-05
0.000252832
-7.77005e-05
0.000276495
-0.000117935
0.000268131
-0.000155012
0.000254491
-0.000191135
0.000237185
-0.000223878
0.000215071
-0.000254529
0.000190434
-0.00028152
0.000161021
-0.000305602
0.000129717
-0.000324483
9.19641e-05
-0.000340135
5.61342e-05
3.91192e-06
-0.000345927
-3.75245e-05
0.000290357
-8.30334e-05
0.000322004
-0.000123566
0.000308664
-0.000166672
0.000297597
-0.000203347
0.00027386
-0.000239122
0.000250846
-0.000269697
0.000221009
-0.000296922
0.000188246
-0.000321286
0.000154081
-0.000341014
0.000111692
-0.000361325
7.64452e-05
1.81829e-05
-0.000375596
-4.9493e-05
0.00033985
-9.8386e-05
0.000370897
-0.000149886
0.000360163
-0.0001939
0.000341612
-0.000238847
0.000318807
-0.000278461
0.00029046
-0.000317333
0.000259881
-0.00035154
0.000222453
-0.000384995
0.000187536
-0.000412535
0.000139232
-0.000440952
0.000104862
3.55989e-05
-0.000458368
-3.98564e-05
0.000379706
-0.000101792
0.000432832
-0.000150889
0.00040926
-0.000209814
0.000400537
-0.000255082
0.000364075
-0.000300703
0.000336082
-0.000337041
0.000296219
-0.000369807
0.000255218
-0.000398961
0.000216691
-0.000423636
0.000163907
-0.000451186
0.000132412
5.89409e-05
-0.000474528
-7.41972e-05
0.000453903
-0.000128748
0.000487383
-0.000194006
0.000474519
-0.000243211
0.000449741
-0.000296484
0.000417349
-0.000343282
0.00038288
-0.000389923
0.000342859
-0.000431772
0.000297067
-0.000474557
0.000259476
-0.000511778
0.000201128
-0.000555279
0.000175912
9.33704e-05
-0.000589708
-1.79683e-05
0.000471872
-0.000118142
0.000587556
-0.000183648
0.000540025
-0.000271365
0.000537458
-0.000330063
0.000476047
-0.000386035
0.000438852
-0.000426338
0.000383162
-0.000460199
0.000330928
-0.000488789
0.000288067
-0.000512608
0.000224947
-0.000540467
0.000203772
0.000120434
-0.000567531
-0.000150083
0.000621954
-0.000181636
0.000619109
-0.00025524
0.000613629
-0.000305366
0.000587584
-0.000361105
0.000531787
-0.000417302
0.000495048
-0.000468644
0.000434504
-0.000517574
0.000379858
-0.000565645
0.000336138
-0.000609857
0.000269159
-0.000663305
0.00025722
0.00017173
-0.000714601
7.29512e-05
0.000549003
-0.000133485
0.000825546
-0.000253399
0.000733543
-0.000381461
0.000715646
-0.000460616
0.000610941
-0.000516007
0.000550439
-0.000553198
0.000471695
-0.000575373
0.000402033
-0.000592742
0.000353507
-0.000602645
0.000279062
-0.000612157
0.000266732
0.000183166
-0.000623593
2.19723e-05
0.000527031
-1.18231e-05
0.000859341
-0.000116133
0.000837853
-0.000285483
0.000884996
-0.000370487
0.000695946
-0.000476529
0.000656481
-0.000544706
0.000539872
-0.000604963
0.000462289
-0.000652986
0.00040153
-0.00069349
0.000319565
-0.000739482
0.000312725
0.000231928
-0.000788244
-0.00132567
0.0018527
-0.00140953
0.000943203
-0.00152344
0.000951762
-0.00137121
0.000732761
-0.00128172
0.00060646
-0.00111577
0.00049053
-0.000994151
0.000418255
-0.000860331
0.000328469
-0.000750593
0.000291792
-0.000650997
0.00021997
-0.000548205
0.000209932
0.00015463
-0.000470908
0.0018527
0.0027959
0.00374767
0.00448043
0.00508689
0.00557742
0.00599567
0.00632414
0.00661593
0.0068359
0.00704583
0.00720047
-0.000115506
4.82915e-05
-7.65665e-05
-9.06486e-05
2.1145e-05
-4.60024e-05
-7.51382e-05
-2.82971e-06
-1.26807e-05
-6.00241e-05
-2.12612e-05
6.14704e-06
-4.55529e-05
-3.60051e-05
2.15339e-05
-3.0246e-05
-4.69183e-05
3.16114e-05
-1.46132e-05
-5.39777e-05
3.83449e-05
-5.22255e-05
3.76123e-05
-0.000129397
1.46636e-05
-0.000102278
-5.97391e-06
-8.47639e-05
-2.0344e-05
-6.77078e-05
-3.83174e-05
-5.15413e-05
-5.21716e-05
-3.43208e-05
-6.41388e-05
-1.66092e-05
-7.16893e-05
-6.88347e-05
-0.000139477
-1.24722e-06
-0.000123268
-2.21824e-05
-0.000105855
-3.77577e-05
-8.70238e-05
-5.71482e-05
-6.67474e-05
-7.24479e-05
-4.47199e-05
-8.61663e-05
-2.17099e-05
-9.46994e-05
-9.05445e-05
-0.000153266
-1.67394e-05
-0.00013725
-3.81989e-05
-0.000118882
-5.61258e-05
-9.85867e-05
-7.74432e-05
-7.62321e-05
-9.48025e-05
-5.13465e-05
-0.000111052
-2.50557e-05
-0.00012099
-0.0001156
-0.000171473
-2.54798e-05
-0.000158664
-5.10077e-05
-0.000141538
-7.32521e-05
-0.000119303
-9.96781e-05
-9.4039e-05
-0.000120067
-6.36291e-05
-0.000141462
-3.1511e-05
-0.000153108
-0.000147111
-0.000194063
-3.45864e-05
-0.00018069
-6.4381e-05
-0.000162579
-9.13632e-05
-0.000138211
-0.000124046
-0.000110065
-0.000148213
-7.49478e-05
-0.000176579
-3.75148e-05
-0.000190541
-0.000184626
-0.000221631
-3.81739e-05
-0.000209688
-7.63239e-05
-0.000193893
-0.000107157
-0.000166806
-0.000151133
-0.00013635
-0.000178669
-9.32569e-05
-0.000219672
-4.80332e-05
-0.000235765
-0.000232659
-0.000257553
-4.20382e-05
-0.000245403
-8.84742e-05
-0.000228847
-0.000123713
-0.000199329
-0.000180651
-0.000164985
-0.000213014
-0.000114197
-0.00027046
-5.98666e-05
-0.000290095
-0.000292526
-0.000294536
-3.79919e-05
-0.000285373
-9.76373e-05
-0.000274596
-0.00013449
-0.000243172
-0.000212074
-0.000209232
-0.000246954
-0.000146625
-0.000333067
-8.12385e-05
-0.000355482
-0.000373764
-0.000350519
-3.33999e-05
-0.000343139
-0.000105017
-0.000333454
-0.000144176
-0.000301006
-0.000244522
-0.000263559
-0.0002844
-0.000189245
-0.000407382
-0.000108705
-0.000436021
-0.000482469
-0.000392888
-1.61084e-05
-0.000392937
-0.000104968
-0.000397699
-0.000139414
-0.000369803
-0.000272419
-0.000343973
-0.00031023
-0.000255969
-0.000495386
-0.000163463
-0.000528527
-0.000645933
-0.000479156
4.67926e-06
-0.000485217
-9.89065e-05
-0.000497112
-0.000127519
-0.000475039
-0.000294491
-0.000453026
-0.000332243
-0.000354569
-0.000593843
-0.000243122
-0.000639973
-0.000889055
-0.000509496
3.96477e-05
-0.000531248
-7.71549e-05
-0.00057281
-8.59579e-05
-0.00057714
-0.00029016
-0.000603522
-0.000305861
-0.000515388
-0.000681977
-0.000422162
-0.000733199
-0.00131122
-0.000639115
8.90546e-05
-0.000673918
-4.23524e-05
-0.000735151
-2.47245e-05
-0.000763832
-0.00026148
-0.000825431
-0.000244262
-0.000769928
-0.000737481
-0.000716098
-0.000787029
-0.00202732
-0.000613003
0.000134526
-0.0006651
9.74491e-06
-0.000765206
7.53813e-05
-0.000865284
-0.000161401
-0.00106686
-4.26894e-05
-0.00115773
-0.000646607
-0.00129405
-0.000650712
-0.00332136
-0.000790286
0.000210211
-0.000868808
8.82667e-05
-0.00100159
0.000208165
-0.00114783
-1.51604e-05
-0.00139529
0.000204767
-0.0015748
-0.000467099
-0.00162095
-0.000604556
-0.00494232
-0.00063884
0.000225458
-0.000684295
0.000133722
-0.000768531
0.000292402
-0.000966298
0.000182606
-0.0012801
0.000518573
-0.00161787
-0.000129335
-0.00120354
-0.00101888
-0.00614586
-0.000855211
0.000292425
-0.000954844
0.000233355
-0.00107202
0.000409582
-0.00128293
0.000393516
-0.00133024
0.00056588
-0.0014547
-4.87408e-06
-0.000343068
-0.00213052
-0.00648893
-0.000327545
0.000149062
-0.000246436
0.000152247
7.23873e-05
9.07581e-05
0.000282239
0.000183665
0.0009382
-9.00819e-05
0.00136344
-0.000430118
0.00143017
-0.00219725
-0.00505875
0.00734953
0.00750177
0.00759253
0.0077762
0.00768612
0.007256
0.00505875
-1.87361e-06
1.87361e-06
-3.57529e-06
1.70168e-06
-4.60583e-06
1.03054e-06
-4.89095e-06
2.85111e-07
-4.3911e-06
-4.99842e-07
-3.25263e-06
-1.13847e-06
-1.64838e-06
-1.60426e-06
-1.64838e-06
-2.20511e-06
4.07872e-06
-4.17651e-06
3.67307e-06
-5.3379e-06
2.19193e-06
-5.5869e-06
5.34112e-07
-4.97638e-06
-1.11036e-06
-3.67354e-06
-2.44131e-06
-1.85982e-06
-3.41798e-06
-3.5082e-06
-3.34191e-06
7.42063e-06
-6.19674e-06
6.5279e-06
-7.77062e-06
3.76581e-06
-8.12808e-06
8.91573e-07
-7.18452e-06
-2.05392e-06
-5.26403e-06
-4.36181e-06
-2.65583e-06
-6.02618e-06
-6.16403e-06
-4.00914e-06
1.14298e-05
-7.33146e-06
9.85021e-06
-9.03659e-06
5.47094e-06
-9.15851e-06
1.01349e-06
-7.96758e-06
-3.24484e-06
-5.79327e-06
-6.53612e-06
-2.90671e-06
-8.91274e-06
-9.07074e-06
-7.65574e-06
1.90855e-05
-1.33077e-05
1.55021e-05
-1.56669e-05
7.83019e-06
-1.5674e-05
1.02059e-06
-1.33647e-05
-5.55421e-06
-9.55807e-06
-1.03427e-05
-4.762e-06
-1.37088e-05
-1.38327e-05
-9.41657e-06
2.85021e-05
-1.60614e-05
2.21469e-05
-1.85473e-05
1.03162e-05
-1.79548e-05
4.28009e-07
-1.51115e-05
-8.39747e-06
-1.07532e-05
-1.4701e-05
-5.33287e-06
-1.91291e-05
-1.91656e-05
-2.12461e-05
4.97482e-05
-3.27848e-05
3.36856e-05
-3.42824e-05
1.18138e-05
-3.16358e-05
-2.21866e-06
-2.55838e-05
-1.44494e-05
-1.76706e-05
-2.26143e-05
-8.66381e-06
-2.81359e-05
-2.78294e-05
-2.68183e-05
-3.9135e-05
-4.00019e-05
-3.60735e-05
-2.8989e-05
-1.99919e-05
-9.78286e-06
)
;

boundaryField
{
    movingWall
    {
        type            calculated;
        value           uniform 0;
    }
    fixedWalls
    {
        type            calculated;
        value           uniform 0;
    }
    frontAndBack
    {
        type            empty;
        value           nonuniform List<scalar> 0();
    }
}


// ************************************************************************* //
