/*--------------------------------*- C++ -*----------------------------------*\
  =========                 |
  \\      /  F ield         | OpenFOAM: The Open Source CFD Toolbox
   \\    /   O peration     | Website:  https://openfoam.org
    \\  /    A nd           | Version:  8
     \\/     M anipulation  |
\*---------------------------------------------------------------------------*/
FoamFile
{
    version     2.0;
    format      ascii;
    class       surfaceScalarField;
    location    "0.06";
    object      phi;
}
// * * * * * * * * * * * * * * * * * * * * * * * * * * * * * * * * * * * * * //

dimensions      [0 3 -1 0 0 0 0];

internalField   nonuniform List<scalar> 
760
(
1.21335e-07
-3.40593e-12
1.21329e-07
6.3887e-12
1.21314e-07
1.47821e-11
1.21298e-07
1.58694e-11
1.21282e-07
1.57967e-11
1.21268e-07
1.47424e-11
1.21255e-07
1.29252e-11
1.21244e-07
1.05691e-11
1.21236e-07
7.83347e-12
1.21232e-07
4.81412e-12
1.2123e-07
1.57563e-12
1.21232e-07
-1.8196e-12
1.21237e-07
-5.30082e-12
1.21246e-07
-8.7827e-12
1.21258e-07
-1.21286e-11
1.21273e-07
-1.50729e-11
1.2129e-07
-1.71373e-11
1.21308e-07
-1.73393e-11
1.21321e-07
-1.37348e-11
-1.05751e-11
3.75063e-07
1.28971e-12
3.75047e-07
2.18094e-11
3.75026e-07
3.5738e-11
3.75002e-07
4.06275e-11
3.74977e-07
4.08634e-11
3.74953e-07
3.81914e-11
3.74933e-07
3.34106e-11
3.74916e-07
2.70567e-11
3.74905e-07
1.95181e-11
3.74898e-07
1.10902e-11
3.74898e-07
2.03706e-12
3.74903e-07
-7.37574e-12
3.74915e-07
-1.68632e-11
3.74932e-07
-2.60855e-11
3.74955e-07
-3.4559e-11
3.74981e-07
-4.14925e-11
3.75009e-07
-4.55661e-11
3.75037e-07
-4.45217e-11
3.75058e-07
-3.54526e-11
-1.97156e-11
6.62826e-07
4.77141e-12
6.62812e-07
3.55924e-11
6.62793e-07
5.47519e-11
6.62771e-07
6.29616e-11
6.62748e-07
6.38706e-11
6.62726e-07
5.98484e-11
6.62707e-07
5.22785e-11
6.62692e-07
4.20816e-11
6.62682e-07
2.99128e-11
6.62677e-07
1.62866e-11
6.62677e-07
1.66614e-12
6.62683e-07
-1.3477e-11
6.62695e-07
-2.86105e-11
6.62712e-07
-4.30651e-11
6.62733e-07
-5.59119e-11
6.62758e-07
-6.57778e-11
6.62783e-07
-7.06455e-11
6.62806e-07
-6.7441e-11
6.62823e-07
-5.27007e-11
-2.63927e-11
1.00951e-06
7.37116e-12
1.0095e-06
4.36642e-11
1.00949e-06
6.75339e-11
1.00947e-06
7.88383e-11
1.00946e-06
8.09004e-11
1.00944e-06
7.63506e-11
1.00942e-06
6.69549e-11
1.00941e-06
5.39623e-11
1.0094e-06
3.8287e-11
1.0094e-06
2.06551e-11
1.0094e-06
1.71437e-12
1.0094e-06
-1.7876e-11
1.00941e-06
-3.73565e-11
1.00943e-06
-5.57622e-11
1.00944e-06
-7.17901e-11
1.00946e-06
-8.36319e-11
1.00948e-06
-8.88074e-11
1.00949e-06
-8.38396e-11
1.00951e-06
-6.50048e-11
-3.21643e-11
1.44313e-06
6.94681e-12
1.44313e-06
4.63811e-11
1.44313e-06
7.32519e-11
1.44312e-06
8.70014e-11
1.44311e-06
9.04722e-11
1.4431e-06
8.62485e-11
1.44309e-06
7.62286e-11
1.44308e-06
6.18534e-11
1.44308e-06
4.42238e-11
1.44307e-06
2.42304e-11
1.44307e-06
2.66922e-12
1.44307e-06
-1.96515e-11
1.44308e-06
-4.18033e-11
1.44308e-06
-6.26199e-11
1.44309e-06
-8.05635e-11
1.4431e-06
-9.35862e-11
1.44311e-06
-9.89986e-11
1.44312e-06
-9.32223e-11
1.44313e-06
-7.24767e-11
-3.65855e-11
1.99602e-06
4.08089e-12
1.99602e-06
4.39493e-11
1.99602e-06
7.19793e-11
1.99602e-06
8.72745e-11
1.99602e-06
9.21512e-11
1.99602e-06
8.89419e-11
1.99601e-06
7.94654e-11
1.99601e-06
6.51962e-11
1.99601e-06
4.73129e-11
1.996e-06
2.67917e-11
1.996e-06
4.51115e-12
1.996e-06
-1.86374e-11
1.996e-06
-4.1639e-11
1.996e-06
-6.32409e-11
1.996e-06
-8.18293e-11
1.996e-06
-9.53123e-11
1.99601e-06
-1.01011e-10
1.99601e-06
-9.54672e-11
1.99601e-06
-7.50476e-11
-3.94696e-11
2.70573e-06
-4.11487e-13
2.70574e-06
3.70827e-11
2.70575e-06
6.43561e-11
2.70575e-06
8.01394e-11
2.70576e-06
8.62092e-11
2.70576e-06
8.44918e-11
2.70577e-06
7.65603e-11
2.70577e-06
6.37768e-11
2.70577e-06
4.72803e-11
2.70577e-06
2.80391e-11
2.70576e-06
6.93515e-12
2.70576e-06
-1.51371e-11
2.70576e-06
-3.71698e-11
2.70575e-06
-5.79427e-11
2.70575e-06
-7.5918e-11
2.70574e-06
-8.91381e-11
2.70573e-06
-9.51338e-11
2.70573e-06
-9.0767e-11
2.70573e-06
-7.27175e-11
-4.05357e-11
3.61579e-06
-5.75847e-12
3.6158e-06
2.67469e-11
3.61581e-06
5.13788e-11
3.61583e-06
6.65421e-11
3.61584e-06
7.34412e-11
3.61585e-06
7.34812e-11
3.61586e-06
6.78674e-11
3.61586e-06
5.7727e-11
3.61587e-06
4.40508e-11
3.61587e-06
2.77079e-11
3.61587e-06
9.504e-12
3.61586e-06
-9.74071e-12
3.61585e-06
-2.91138e-11
3.61584e-06
-4.75361e-11
3.61583e-06
-6.36806e-11
3.61582e-06
-7.58847e-11
3.6158e-06
-8.20627e-11
3.61579e-06
-7.95874e-11
3.61578e-06
-6.56165e-11
-3.94664e-11
4.77581e-06
-1.11965e-11
4.77583e-06
1.40562e-11
4.77584e-06
3.43175e-11
4.77586e-06
4.77955e-11
4.77588e-06
5.50617e-11
4.7759e-06
5.6927e-11
4.77591e-06
5.41425e-11
4.77592e-06
4.75052e-11
4.77593e-06
3.77692e-11
4.77593e-06
2.5627e-11
4.77593e-06
1.17403e-11
4.77592e-06
-3.2102e-12
4.77591e-06
-1.84791e-11
4.7759e-06
-3.32136e-11
4.77588e-06
-4.64035e-11
4.77586e-06
-5.68113e-11
4.77584e-06
-6.28865e-11
4.77582e-06
-6.26921e-11
4.77581e-06
-5.40522e-11
-3.59972e-11
6.24103e-06
-1.59571e-11
6.24104e-06
2.42953e-13
6.24106e-06
1.46873e-11
6.24108e-06
2.55292e-11
6.24111e-06
3.2653e-11
6.24113e-06
3.62335e-11
6.24114e-06
3.65118e-11
6.24116e-06
3.3889e-11
6.24117e-06
2.88197e-11
6.24117e-06
2.17645e-11
6.24117e-06
1.31932e-11
6.24116e-06
3.6026e-12
6.24115e-06
-6.47478e-12
6.24113e-06
-1.64662e-11
6.24111e-06
-2.57455e-11
6.24109e-06
-3.35906e-11
6.24107e-06
-3.91061e-11
6.24104e-06
-4.12067e-11
6.24103e-06
-3.858e-11
-2.99994e-11
8.07076e-06
-1.9325e-11
8.07077e-06
-1.33784e-11
8.07079e-06
-5.78999e-12
8.07082e-06
1.65144e-12
8.07084e-06
8.12807e-12
8.07087e-06
1.31606e-11
8.07089e-06
1.64531e-11
8.0709e-06
1.79757e-11
8.07091e-06
1.78505e-11
8.07092e-06
1.62772e-11
8.07092e-06
1.35099e-11
8.07091e-06
9.8431e-12
8.0709e-06
5.58112e-12
8.07088e-06
1.00138e-12
8.07086e-06
-3.67613e-12
8.07083e-06
-8.28368e-12
8.07081e-06
-1.26539e-11
8.07078e-06
-1.6678e-11
8.07076e-06
-2.00884e-11
-2.15583e-11
1.03257e-05
-2.07397e-11
1.03257e-05
-2.54864e-11
1.03257e-05
-2.52652e-11
1.03257e-05
-2.17155e-11
1.03258e-05
-1.63254e-11
1.03258e-05
-1.02231e-11
1.03258e-05
-4.23476e-12
1.03258e-05
1.17331e-12
1.03258e-05
5.79222e-12
1.03258e-05
9.55762e-12
1.03258e-05
1.2511e-11
1.03258e-05
1.47524e-11
1.03258e-05
1.6375e-11
1.03258e-05
1.7385e-11
1.03258e-05
1.76248e-11
1.03258e-05
1.67294e-11
1.03257e-05
1.4131e-11
1.03257e-05
8.90037e-12
1.03257e-05
1.18553e-13
-1.10604e-11
1.30636e-05
-1.99204e-11
1.30636e-05
-3.4875e-11
1.30636e-05
-4.18856e-11
1.30636e-05
-4.2344e-11
1.30636e-05
-3.83426e-11
1.30637e-05
-3.16218e-11
1.30637e-05
-2.35004e-11
1.30637e-05
-1.48361e-11
1.30637e-05
-6.1489e-12
1.30637e-05
2.26429e-12
1.30637e-05
1.02594e-11
1.30637e-05
1.77743e-11
1.30637e-05
2.4735e-11
1.30637e-05
3.0937e-11
1.30637e-05
3.59238e-11
1.30637e-05
3.88855e-11
1.30636e-05
3.85938e-11
1.30636e-05
3.31163e-11
1.30636e-05
2.02719e-11
7.13602e-13
1.63335e-05
-1.69758e-11
1.63335e-05
-4.06096e-11
1.63335e-05
-5.39503e-11
1.63335e-05
-5.80584e-11
1.63335e-05
-5.55336e-11
1.63335e-05
-4.86572e-11
1.63336e-05
-3.91517e-11
1.63336e-05
-2.81944e-11
1.63336e-05
-1.6548e-11
1.63336e-05
-4.68903e-12
1.63336e-05
7.10101e-12
1.63336e-05
1.86493e-11
1.63336e-05
2.97767e-11
1.63336e-05
4.01557e-11
1.63336e-05
4.91497e-11
1.63336e-05
5.56542e-11
1.63335e-05
5.79472e-11
1.63335e-05
5.3251e-11
1.63335e-05
3.81642e-11
1.25188e-11
2.01684e-05
-1.24646e-11
2.01684e-05
-4.21617e-11
2.01684e-05
-6.00731e-11
2.01685e-05
-6.69261e-11
2.01685e-05
-6.56943e-11
2.01685e-05
-5.90807e-11
2.01685e-05
-4.90714e-11
2.01685e-05
-3.70423e-11
2.01685e-05
-2.38985e-11
2.01685e-05
-1.02175e-11
2.01685e-05
3.64586e-12
2.01685e-05
1.74667e-11
2.01685e-05
3.1031e-11
2.01685e-05
4.39848e-11
2.01685e-05
5.56529e-11
2.01685e-05
6.48333e-11
2.01685e-05
6.95616e-11
2.01685e-05
6.65114e-11
2.01684e-05
5.12879e-11
2.26545e-11
2.45774e-05
-7.36751e-12
2.45774e-05
-3.94515e-11
2.45774e-05
-5.93166e-11
2.45774e-05
-6.74679e-11
2.45774e-05
-6.70779e-11
2.45774e-05
-6.10796e-11
2.45774e-05
-5.15206e-11
2.45774e-05
-3.98073e-11
2.45774e-05
-2.68561e-11
2.45774e-05
-1.32488e-11
2.45774e-05
6.56892e-13
2.45774e-05
1.4641e-11
2.45774e-05
2.85163e-11
2.45774e-05
4.19888e-11
2.45774e-05
5.44799e-11
2.45774e-05
6.49025e-11
2.45774e-05
7.13605e-11
2.45774e-05
7.04093e-11
2.45774e-05
5.71222e-11
2.91162e-11
2.95371e-05
-2.92394e-12
2.95371e-05
-3.27495e-11
2.95371e-05
-5.12499e-11
2.95371e-05
-5.88623e-11
2.95371e-05
-5.87228e-11
2.95371e-05
-5.3673e-11
2.95371e-05
-4.55536e-11
2.95371e-05
-3.55997e-11
2.95371e-05
-2.45928e-11
2.95371e-05
-1.30181e-11
2.95371e-05
-1.16934e-12
2.95371e-05
1.07837e-11
2.95371e-05
2.27216e-11
2.95371e-05
3.44648e-11
2.95371e-05
4.56247e-11
2.95371e-05
5.54048e-11
2.95371e-05
6.22984e-11
2.95371e-05
6.32774e-11
2.95372e-05
5.35968e-11
2.99428e-11
3.49866e-05
-1.58888e-13
3.49866e-05
-2.23999e-11
3.49866e-05
-3.58968e-11
3.49866e-05
-4.11386e-11
3.49866e-05
-4.08068e-11
3.49865e-05
-3.71527e-11
3.49865e-05
-3.14874e-11
3.49865e-05
-2.46693e-11
3.49865e-05
-1.72197e-11
3.49865e-05
-9.44518e-12
3.49865e-05
-1.52131e-12
3.49865e-05
6.4672e-12
3.49865e-05
1.44835e-11
3.49865e-05
2.24651e-11
3.49866e-05
3.02214e-11
3.49866e-05
3.73183e-11
3.49866e-05
4.28852e-11
3.49866e-05
4.48468e-11
3.49866e-05
3.9604e-11
2.36051e-11
4.08244e-05
2.72434e-13
4.08244e-05
-9.56579e-12
4.08244e-05
-1.50164e-11
4.08244e-05
-1.68918e-11
4.08243e-05
-1.64485e-11
4.08243e-05
-1.47697e-11
4.08243e-05
-1.23808e-11
4.08243e-05
-9.63321e-12
4.08243e-05
-6.72804e-12
4.08243e-05
-3.76385e-12
4.08243e-05
-7.76104e-13
4.08243e-05
2.24676e-12
4.08243e-05
5.32923e-12
4.08243e-05
8.46906e-12
4.08243e-05
1.15805e-11
4.08243e-05
1.4505e-11
4.08244e-05
1.70356e-11
4.08244e-05
1.84428e-11
4.08244e-05
1.72136e-11
1.08792e-11
4.69126e-05
4.69126e-05
4.69126e-05
4.69126e-05
4.69126e-05
4.69125e-05
4.69125e-05
4.69125e-05
4.69125e-05
4.69125e-05
4.69125e-05
4.69125e-05
4.69125e-05
4.69125e-05
4.69125e-05
4.69126e-05
4.69126e-05
4.69126e-05
4.69126e-05
)
;

boundaryField
{
    movingWall
    {
        type            calculated;
        value           uniform 0;
    }
    fixedWalls
    {
        type            calculated;
        value           uniform 0;
    }
    left
    {
        type            cyclic;
        value           nonuniform List<scalar> 
20
(
-2.45774e-05
-2.01684e-05
-1.63335e-05
-1.30636e-05
-1.03257e-05
-8.07076e-06
-6.24102e-06
-4.77581e-06
-3.61578e-06
-2.70573e-06
-1.99601e-06
-1.44313e-06
-1.00951e-06
-6.6283e-07
-3.75068e-07
-1.21332e-07
-2.95372e-05
-3.49866e-05
-4.08244e-05
-4.69126e-05
)
;
    }
    right
    {
        type            cyclic;
        value           nonuniform List<scalar> 
20
(
2.45774e-05
2.01684e-05
1.63335e-05
1.30636e-05
1.03257e-05
8.07076e-06
6.24102e-06
4.77581e-06
3.61578e-06
2.70573e-06
1.99601e-06
1.44313e-06
1.00951e-06
6.6283e-07
3.75068e-07
1.21332e-07
2.95372e-05
3.49866e-05
4.08244e-05
4.69126e-05
)
;
    }
    frontAndBack
    {
        type            empty;
        value           nonuniform List<scalar> 0();
    }
}


// ************************************************************************* //
