/*--------------------------------*- C++ -*----------------------------------*\
  =========                 |
  \\      /  F ield         | OpenFOAM: The Open Source CFD Toolbox
   \\    /   O peration     | Website:  https://openfoam.org
    \\  /    A nd           | Version:  8
     \\/     M anipulation  |
\*---------------------------------------------------------------------------*/
FoamFile
{
    version     2.0;
    format      ascii;
    class       volVectorField;
    location    "0.06";
    object      U;
}
// * * * * * * * * * * * * * * * * * * * * * * * * * * * * * * * * * * * * * //

dimensions      [0 1 -1 0 0 0 0];

internalField   nonuniform List<vector> 
400
(
(0.0024267 -1.68709e-07 0)
(0.00242666 -3.571e-08 0)
(0.00242639 9.55098e-08 0)
(0.00242614 1.25651e-07 0)
(0.00242581 1.34509e-07 0)
(0.0024255 1.30524e-07 0)
(0.00242522 1.17526e-07 0)
(0.00242498 9.83838e-08 0)
(0.00242479 7.51102e-08 0)
(0.00242466 4.87746e-08 0)
(0.0024246 2.00114e-08 0)
(0.0024246 -1.06783e-08 0)
(0.00242467 -4.29196e-08 0)
(0.00242482 -7.64336e-08 0)
(0.00242503 -1.10746e-07 0)
(0.0024253 -1.44418e-07 0)
(0.00242563 -1.74128e-07 0)
(0.00242598 -1.92081e-07 0)
(0.00242637 -1.8318e-07 0)
(0.00242657 -2.02835e-07 0)
(0.00750135 -6.2024e-08 0)
(0.00750107 2.11235e-07 0)
(0.00750075 4.74982e-07 0)
(0.00750029 5.47938e-07 0)
(0.00749978 5.55037e-07 0)
(0.00749929 5.20949e-07 0)
(0.00749885 4.57584e-07 0)
(0.00749847 3.7318e-07 0)
(0.00749818 2.73518e-07 0)
(0.007498 1.62482e-07 0)
(0.00749793 4.31641e-08 0)
(0.00749798 -8.14606e-08 0)
(0.00749815 -2.08296e-07 0)
(0.00749845 -3.33655e-07 0)
(0.00749885 -4.51978e-07 0)
(0.00749934 -5.53438e-07 0)
(0.0074999 -6.21065e-07 0)
(0.00750049 -6.23664e-07 0)
(0.00750101 -5.14597e-07 0)
(0.00750138 -3.71606e-07 0)
(0.0132566 1.40901e-08 0)
(0.0132564 5.87322e-07 0)
(0.0132561 9.15192e-07 0)
(0.0132556 1.04916e-06 0)
(0.0132552 1.06141e-06 0)
(0.0132547 9.93201e-07 0)
(0.0132543 8.67624e-07 0)
(0.013254 6.99804e-07 0)
(0.0132537 5.0022e-07 0)
(0.0132536 2.76869e-07 0)
(0.0132535 3.6923e-08 0)
(0.0132536 -2.12333e-07 0)
(0.0132538 -4.62842e-07 0)
(0.013254 -7.04637e-07 0)
(0.0132544 -9.23524e-07 0)
(0.0132549 -1.0973e-06 0)
(0.0132554 -1.1914e-06 0)
(0.0132559 -1.15125e-06 0)
(0.0132563 -9.10737e-07 0)
(0.0132566 -4.71564e-07 0)
(0.0201902 1.56742e-07 0)
(0.0201901 8.23869e-07 0)
(0.0201899 1.25494e-06 0)
(0.0201896 1.44935e-06 0)
(0.0201893 1.47623e-06 0)
(0.0201889 1.38628e-06 0)
(0.0201886 1.2116e-06 0)
(0.0201883 9.74209e-07 0)
(0.0201881 6.89786e-07 0)
(0.020188 3.70669e-07 0)
(0.020188 2.80526e-08 0)
(0.020188 -3.26543e-07 0)
(0.0201881 -6.79943e-07 0)
(0.0201884 -1.0156e-06 0)
(0.0201886 -1.31091e-06 0)
(0.020189 -1.53333e-06 0)
(0.0201894 -1.63622e-06 0)
(0.0201897 -1.55089e-06 0)
(0.02019 -1.20284e-06 0)
(0.0201902 -5.86654e-07 0)
(0.0288627 1.62127e-07 0)
(0.0288627 9.3162e-07 0)
(0.0288626 1.44497e-06 0)
(0.0288624 1.69713e-06 0)
(0.0288623 1.75094e-06 0)
(0.0288621 1.65921e-06 0)
(0.0288619 1.45928e-06 0)
(0.0288617 1.17852e-06 0)
(0.0288616 8.37342e-07 0)
(0.0288615 4.52134e-07 0)
(0.0288614 3.76733e-08 0)
(0.0288614 -3.90951e-07 0)
(0.0288615 -8.16337e-07 0)
(0.0288616 -1.21658e-06 0)
(0.0288618 -1.56263e-06 0)
(0.0288619 -1.81518e-06 0)
(0.0288622 -1.92139e-06 0)
(0.0288624 -1.80893e-06 0)
(0.0288625 -1.40035e-06 0)
(0.0288626 -6.92892e-07 0)
(0.0399203 1.22436e-07 0)
(0.0399204 9.28803e-07 0)
(0.0399204 1.48557e-06 0)
(0.0399204 1.77988e-06 0)
(0.0399204 1.86376e-06 0)
(0.0399203 1.78692e-06 0)
(0.0399203 1.58711e-06 0)
(0.0399202 1.29392e-06 0)
(0.0399201 9.30597e-07 0)
(0.0399201 5.16231e-07 0)
(0.03992 6.79796e-08 0)
(0.03992 -3.96738e-07 0)
(0.03992 -8.5792e-07 0)
(0.03992 -1.29059e-06 0)
(0.03992 -1.66228e-06 0)
(0.03992 -1.93064e-06 0)
(0.0399201 -2.04101e-06 0)
(0.0399202 -1.92192e-06 0)
(0.0399202 -1.49824e-06 0)
(0.0399202 -7.66231e-07 0)
(0.0541145 4.55476e-08 0)
(0.0541147 8.31675e-07 0)
(0.0541149 1.39301e-06 0)
(0.054115 1.70856e-06 0)
(0.0541151 1.81941e-06 0)
(0.0541152 1.76857e-06 0)
(0.0541153 1.59037e-06 0)
(0.0541154 1.31366e-06 0)
(0.0541154 9.62178e-07 0)
(0.0541154 5.55847e-07 0)
(0.0541153 1.12719e-07 0)
(0.0541153 -3.4892e-07 0)
(0.0541152 -8.08334e-07 0)
(0.0541151 -1.24014e-06 0)
(0.054115 -1.61191e-06 0)
(0.0541148 -1.88217e-06 0)
(0.0541147 -1.99852e-06 0)
(0.0541146 -1.89411e-06 0)
(0.0541145 -1.49888e-06 0)
(0.0541145 -8.06389e-07 0)
(0.0723156 -5.68298e-08 0)
(0.0723159 6.54568e-07 0)
(0.0723161 1.18208e-06 0)
(0.0723164 1.49662e-06 0)
(0.0723166 1.6282e-06 0)
(0.0723169 1.61051e-06 0)
(0.0723171 1.47174e-06 0)
(0.0723172 1.23729e-06 0)
(0.0723173 9.2896e-07 0)
(0.0723174 5.65589e-07 0)
(0.0723173 1.6445e-07 0)
(0.0723173 -2.56919e-07 0)
(0.0723171 -6.7888e-07 0)
(0.072317 -1.07794e-06 0)
(0.0723167 -1.42483e-06 0)
(0.0723165 -1.68251e-06 0)
(0.0723162 -1.80454e-06 0)
(0.072316 -1.73235e-06 0)
(0.0723158 -1.40378e-06 0)
(0.0723156 -8.08394e-07 0)
(0.0955161 -1.69232e-07 0)
(0.0955164 4.18206e-07 0)
(0.0955167 8.75044e-07 0)
(0.095517 1.16632e-06 0)
(0.0955174 1.31007e-06 0)
(0.0955178 1.32885e-06 0)
(0.0955181 1.2426e-06 0)
(0.0955183 1.071e-06 0)
(0.0955185 8.31924e-07 0)
(0.0955186 5.41344e-07 0)
(0.0955186 2.14249e-07 0)
(0.0955185 -1.34075e-07 0)
(0.0955183 -4.86751e-07 0)
(0.0955181 -8.24117e-07 0)
(0.0955177 -1.12239e-06 0)
(0.0955174 -1.35203e-06 0)
(0.095517 -1.4759e-06 0)
(0.0955166 -1.44748e-06 0)
(0.0955163 -1.21584e-06 0)
(0.0955161 -7.65052e-07 0)
(0.12482 -2.75789e-07 0)
(0.124821 1.46354e-07 0)
(0.124821 4.9977e-07 0)
(0.124821 7.47125e-07 0)
(0.124822 8.93205e-07 0)
(0.124822 9.48132e-07 0)
(0.124823 9.22116e-07 0)
(0.124823 8.27451e-07 0)
(0.124823 6.76527e-07 0)
(0.124823 4.81128e-07 0)
(0.124823 2.52765e-07 0)
(0.124823 3.3546e-09 0)
(0.124823 -2.54203e-07 0)
(0.124823 -5.05518e-07 0)
(0.124822 -7.34038e-07 0)
(0.124822 -9.1988e-07 0)
(0.124822 -1.03809e-06 0)
(0.124821 -1.05768e-06 0)
(0.124821 -9.42911e-07 0)
(0.12482 -6.71543e-07 0)
(0.161415 -3.61121e-07 0)
(0.161415 -1.35247e-07 0)
(0.161416 8.90486e-08 0)
(0.161416 2.74922e-07 0)
(0.161417 4.13026e-07 0)
(0.161417 5.00393e-07 0)
(0.161418 5.36597e-07 0)
(0.161418 5.25524e-07 0)
(0.161418 4.73089e-07 0)
(0.161418 3.86023e-07 0)
(0.161418 2.71634e-07 0)
(0.161418 1.37831e-07 0)
(0.161418 -7.06684e-09 0)
(0.161418 -1.54661e-07 0)
(0.161417 -2.96552e-07 0)
(0.161417 -4.23813e-07 0)
(0.161416 -5.25607e-07 0)
(0.161416 -5.89511e-07 0)
(0.161415 -5.98868e-07 0)
(0.161415 -5.26949e-07 0)
(0.206514 -4.11687e-07 0)
(0.206514 -3.9954e-07 0)
(0.206514 -3.20433e-07 0)
(0.206515 -2.08994e-07 0)
(0.206515 -8.85737e-08 0)
(0.206516 2.46401e-08 0)
(0.206516 1.19338e-07 0)
(0.206516 1.90642e-07 0)
(0.206517 2.37591e-07 0)
(0.206517 2.61539e-07 0)
(0.206517 2.65376e-07 0)
(0.206517 2.52913e-07 0)
(0.206517 2.27914e-07 0)
(0.206516 1.92902e-07 0)
(0.206516 1.48178e-07 0)
(0.206516 9.15001e-08 0)
(0.206515 1.87436e-08 0)
(0.206515 -7.81647e-08 0)
(0.206514 -2.0504e-07 0)
(0.206514 -3.35403e-07 0)
(0.261271 -4.18344e-07 0)
(0.261272 -6.20201e-07 0)
(0.261272 -6.90491e-07 0)
(0.261272 -6.59943e-07 0)
(0.261273 -5.64896e-07 0)
(0.261273 -4.34366e-07 0)
(0.261274 -2.90104e-07 0)
(0.261274 -1.45459e-07 0)
(0.261274 -7.98943e-09 0)
(0.261274 1.18547e-07 0)
(0.261274 2.32921e-07 0)
(0.261274 3.35277e-07 0)
(0.261274 4.25475e-07 0)
(0.261274 5.0107e-07 0)
(0.261274 5.55366e-07 0)
(0.261273 5.76026e-07 0)
(0.261273 5.4458e-07 0)
(0.261272 4.32112e-07 0)
(0.261272 2.07968e-07 0)
(0.261272 -1.08098e-07 0)
(0.326669 -3.79121e-07 0)
(0.32667 -7.75055e-07 0)
(0.32667 -9.84902e-07 0)
(0.32667 -1.03323e-06 0)
(0.32667 -9.67737e-07 0)
(0.326671 -8.29243e-07 0)
(0.326671 -6.48726e-07 0)
(0.326671 -4.46961e-07 0)
(0.326672 -2.3714e-07 0)
(0.326672 -2.73081e-08 0)
(0.326672 1.77977e-07 0)
(0.326672 3.76067e-07 0)
(0.326672 5.64054e-07 0)
(0.326672 7.36093e-07 0)
(0.326672 8.80551e-07 0)
(0.326671 9.7743e-07 0)
(0.326671 9.963e-07 0)
(0.32667 8.8916e-07 0)
(0.32667 5.99845e-07 0)
(0.32667 1.34728e-07 0)
(0.403369 -3.00766e-07 0)
(0.403369 -8.49277e-07 0)
(0.403369 -1.17262e-06 0)
(0.403369 -1.28779e-06 0)
(0.403369 -1.2513e-06 0)
(0.403369 -1.11396e-06 0)
(0.40337 -9.13818e-07 0)
(0.40337 -6.77137e-07 0)
(0.40337 -4.21139e-07 0)
(0.40337 -1.56798e-07 0)
(0.40337 1.09165e-07 0)
(0.40337 3.72448e-07 0)
(0.40337 6.28776e-07 0)
(0.40337 8.70856e-07 0)
(0.40337 1.08487e-06 0)
(0.40337 1.24677e-06 0)
(0.40337 1.31835e-06 0)
(0.403369 1.23684e-06 0)
(0.403369 9.22831e-07 0)
(0.403369 3.63416e-07 0)
(0.491547 -1.98465e-07 0)
(0.491547 -8.36768e-07 0)
(0.491547 -1.22994e-06 0)
(0.491547 -1.38893e-06 0)
(0.491547 -1.37566e-06 0)
(0.491547 -1.2477e-06 0)
(0.491547 -1.04676e-06 0)
(0.491547 -8.01771e-07 0)
(0.491547 -5.31712e-07 0)
(0.491547 -2.48719e-07 0)
(0.491547 3.96834e-08 0)
(0.491548 3.28747e-07 0)
(0.491548 6.14224e-07 0)
(0.491548 8.89349e-07 0)
(0.491548 1.14106e-06 0)
(0.491548 1.3455e-06 0)
(0.491548 1.46235e-06 0)
(0.491548 1.4213e-06 0)
(0.491548 1.12619e-06 0)
(0.491547 5.40893e-07 0)
(0.590743 -9.41895e-08 0)
(0.590743 -7.37735e-07 0)
(0.590743 -1.13923e-06 0)
(0.590743 -1.30757e-06 0)
(0.590742 -1.30637e-06 0)
(0.590742 -1.19486e-06 0)
(0.590742 -1.0134e-06 0)
(0.590742 -7.8966e-07 0)
(0.590742 -5.41525e-07 0)
(0.590742 -2.8027e-07 0)
(0.590742 -1.27816e-08 0)
(0.590742 2.56878e-07 0)
(0.590742 5.25627e-07 0)
(0.590742 7.88769e-07 0)
(0.590742 1.03648e-06 0)
(0.590743 1.2492e-06 0)
(0.590743 1.39111e-06 0)
(0.590743 1.39422e-06 0)
(0.590743 1.1578e-06 0)
(0.590743 6.23646e-07 0)
(0.699733 -2.04421e-08 0)
(0.699732 -5.64539e-07 0)
(0.699732 -9.00573e-07 0)
(0.699732 -1.03696e-06 0)
(0.699731 -1.03423e-06 0)
(0.699731 -9.45473e-07 0)
(0.699731 -8.03584e-07 0)
(0.699731 -6.30364e-07 0)
(0.69973 -4.3941e-07 0)
(0.69973 -2.39003e-07 0)
(0.69973 -3.4073e-08 0)
(0.69973 1.72749e-07 0)
(0.69973 3.79973e-07 0)
(0.699731 5.85354e-07 0)
(0.699731 7.83236e-07 0)
(0.699731 9.61092e-07 0)
(0.699732 1.09418e-06 0)
(0.699732 1.12951e-06 0)
(0.699732 9.79543e-07 0)
(0.699732 5.71668e-07 0)
(0.816488 1.36382e-08 0)
(0.816488 -3.20451e-07 0)
(0.816488 -5.16786e-07 0)
(0.816487 -5.89388e-07 0)
(0.816487 -5.80217e-07 0)
(0.816486 -5.2536e-07 0)
(0.816486 -4.43721e-07 0)
(0.816486 -3.47383e-07 0)
(0.816485 -2.43438e-07 0)
(0.816485 -1.3577e-07 0)
(0.816485 -2.63455e-08 0)
(0.816485 8.41498e-08 0)
(0.816485 1.95679e-07 0)
(0.816486 3.07688e-07 0)
(0.816486 4.17726e-07 0)
(0.816486 5.20384e-07 0)
(0.816487 6.05626e-07 0)
(0.816487 6.4519e-07 0)
(0.816488 5.87104e-07 0)
(0.816488 3.61757e-07 0)
(0.938252 1.02724e-09 0)
(0.938252 -1.02368e-07 0)
(0.938252 -1.55719e-07 0)
(0.938252 -1.70094e-07 0)
(0.938251 -1.62043e-07 0)
(0.938251 -1.43366e-07 0)
(0.938251 -1.19117e-07 0)
(0.938251 -9.22176e-08 0)
(0.93825 -6.41324e-08 0)
(0.93825 -3.54924e-08 0)
(0.93825 -6.54526e-09 0)
(0.93825 2.27208e-08 0)
(0.93825 5.24675e-08 0)
(0.93825 8.26032e-08 0)
(0.938251 1.12492e-07 0)
(0.938251 1.41134e-07 0)
(0.938251 1.67375e-07 0)
(0.938252 1.84751e-07 0)
(0.938252 1.76782e-07 0)
(0.938252 1.16512e-07 0)
)
;

boundaryField
{
    movingWall
    {
        type            fixedValue;
        value           uniform (1 0 0);
    }
    fixedWalls
    {
        type            noSlip;
    }
    left
    {
        type            cyclic;
    }
    right
    {
        type            cyclic;
    }
    frontAndBack
    {
        type            empty;
    }
}


// ************************************************************************* //
