/*--------------------------------*- C++ -*----------------------------------*\
  =========                 |
  \\      /  F ield         | OpenFOAM: The Open Source CFD Toolbox
   \\    /   O peration     | Website:  https://openfoam.org
    \\  /    A nd           | Version:  8
     \\/     M anipulation  |
\*---------------------------------------------------------------------------*/
FoamFile
{
    version     2.0;
    format      ascii;
    class       volVectorField;
    location    "63";
    object      U;
}
// * * * * * * * * * * * * * * * * * * * * * * * * * * * * * * * * * * * * * //

dimensions      [0 1 -1 0 0 0 0];

internalField   nonuniform List<vector> 
12504
(
(1.00014 -0.000665582 7.60668e-07)
(1.00339 -0.00198307 -1.13292e-06)
(1.00988 -0.00323987 -2.05208e-06)
(1.0195 -0.00438856 -1.39765e-06)
(1.03188 -0.00538871 -7.82161e-07)
(1.04656 -0.00620702 -5.53178e-07)
(1.06306 -0.00681859 -3.89537e-07)
(1.08083 -0.00720887 -6.55561e-08)
(1.0993 -0.00737493 3.04486e-07)
(1.11793 -0.00732542 6.35528e-07)
(1.13617 -0.0070789 8.84947e-07)
(1.15355 -0.0066609 1.02768e-06)
(1.16969 -0.00610007 1.05577e-06)
(1.18425 -0.00542415 9.89974e-07)
(1.19698 -0.00465721 8.69558e-07)
(1.20768 -0.00381822 7.46823e-07)
(1.21618 -0.00292182 6.52939e-07)
(1.22238 -0.00197947 6.00628e-07)
(1.22617 -0.00100237 5.78927e-07)
(1.22746 -1.26314e-06 5.29945e-07)
(1.22623 0.00100608 6.25298e-07)
(1.22247 0.00200264 7.65404e-07)
(1.21625 0.00296494 8.40754e-07)
(1.20767 0.00386449 8.8396e-07)
(1.19693 0.00466917 8.29098e-07)
(1.18428 0.00534458 7.92194e-07)
(1.17014 0.00585582 6.17654e-07)
(1.15489 0.00617011 5.59048e-07)
(1.13916 0.00625764 2.9205e-07)
(1.12342 0.00609603 3.18155e-07)
(1.10851 0.00566685 -3.89007e-08)
(1.09487 0.00496554 2.01256e-07)
(1.08352 0.00398656 -3.00912e-07)
(1.07471 0.00274982 2.85266e-07)
(1.06969 0.00125717 -5.66548e-07)
(1.06823 -0.000432853 3.94451e-07)
(1.0719 -0.00232861 -1.14241e-06)
(1.07971 -0.0043036 4.4525e-07)
(1.09361 -0.00641964 -1.7978e-06)
(1.11169 -0.00841565 4.26511e-07)
(1.13603 -0.0105048 -2.17882e-06)
(1.16421 -0.0121718 1.51889e-07)
(1.19725 -0.0139636 -1.33159e-06)
(1.23433 -0.0149204 -1.01525e-06)
(1.27194 -0.016202 2.07855e-06)
(1.31636 -0.0161386 -4.46104e-06)
(1.35178 -0.0168487 8.95052e-06)
(1.40316 -0.0156257 -1.15768e-05)
(1.42685 -0.0158833 1.5025e-05)
(1.4879 -0.0135336 -1.20488e-05)
(1.00014 -0.00201545 7.42617e-07)
(1.00347 -0.00600019 -1.19457e-06)
(1.01012 -0.00980061 -2.08484e-06)
(1.01997 -0.0132748 -1.42595e-06)
(1.03265 -0.0162986 -8.20106e-07)
(1.04769 -0.0187703 -5.86284e-07)
(1.06458 -0.0206146 -4.06065e-07)
(1.08275 -0.0217873 -4.55965e-08)
(1.10163 -0.02228 3.52557e-07)
(1.12063 -0.0221196 7.05284e-07)
(1.13922 -0.0213637 9.67551e-07)
(1.15691 -0.0200913 1.10981e-06)
(1.1733 -0.0183906 1.12395e-06)
(1.18807 -0.0163466 1.03755e-06)
(1.20097 -0.014032 8.98859e-07)
(1.21181 -0.0115036 7.64979e-07)
(1.22043 -0.00880443 6.68024e-07)
(1.22672 -0.00596806 6.15409e-07)
(1.23058 -0.00302678 5.93396e-07)
(1.23192 -1.38888e-05 5.25987e-07)
(1.2307 0.00302411 6.30431e-07)
(1.22692 0.00603119 7.90237e-07)
(1.22062 0.00893759 8.79773e-07)
(1.21192 0.0116574 9.35405e-07)
(1.201 0.0140936 8.85721e-07)
(1.18812 0.0161412 8.50586e-07)
(1.17369 0.0176946 6.7324e-07)
(1.1581 0.0186534 6.09076e-07)
(1.142 0.0189278 3.30737e-07)
(1.12587 0.0184485 3.48535e-07)
(1.11056 0.0171611 -2.59353e-08)
(1.09652 0.0150493 2.06771e-07)
(1.08481 0.0120989 -3.2098e-07)
(1.07566 0.00836702 2.74464e-07)
(1.07038 0.00386298 -5.93141e-07)
(1.06871 -0.00124362 3.8648e-07)
(1.07231 -0.00697129 -1.21382e-06)
(1.08011 -0.0129459 4.27633e-07)
(1.0942 -0.0193462 -1.91394e-06)
(1.11252 -0.0253901 4.45882e-07)
(1.13734 -0.0317164 -2.31171e-06)
(1.16604 -0.0367639 2.48267e-07)
(1.19984 -0.0421948 -1.44692e-06)
(1.23766 -0.0450788 -8.12163e-07)
(1.27618 -0.0489645 2.06362e-06)
(1.32146 -0.048735 -4.19737e-06)
(1.35769 -0.0508904 9.03391e-06)
(1.40994 -0.0471333 -1.13653e-05)
(1.43409 -0.0479277 1.50987e-05)
(1.49605 -0.0408005 -1.21819e-05)
(1.00015 -0.00341615 7.63088e-07)
(1.00364 -0.0101655 -1.27357e-06)
(1.01061 -0.0166019 -2.18723e-06)
(1.02094 -0.0224859 -1.5006e-06)
(1.03424 -0.0276038 -8.72745e-07)
(1.05 -0.031781 -6.16013e-07)
(1.06767 -0.0348883 -4.03595e-07)
(1.08667 -0.0368504 2.40035e-08)
(1.10638 -0.0376539 4.84818e-07)
(1.12616 -0.0373473 8.87214e-07)
(1.14545 -0.0360331 1.1747e-06)
(1.16375 -0.0338512 1.30674e-06)
(1.18065 -0.0309564 1.27677e-06)
(1.19584 -0.027496 1.12967e-06)
(1.20909 -0.0235936 9.34892e-07)
(1.22021 -0.0193427 7.63616e-07)
(1.22907 -0.0148123 6.51307e-07)
(1.23554 -0.0100545 5.99057e-07)
(1.23955 -0.00511931 5.81094e-07)
(1.24098 -6.04904e-05 5.21583e-07)
(1.23978 0.00505161 6.39646e-07)
(1.23596 0.0101206 8.37878e-07)
(1.22952 0.01503 9.61671e-07)
(1.22057 0.0196347 1.03926e-06)
(1.20929 0.0237696 9.93168e-07)
(1.19594 0.0272552 9.57277e-07)
(1.18092 0.0299106 7.67123e-07)
(1.16466 0.0315636 6.91953e-07)
(1.14781 0.0320605 3.82423e-07)
(1.13088 0.031282 3.87229e-07)
(1.11475 0.0291364 -3.3735e-08)
(1.0999 0.0255934 2.10429e-07)
(1.08746 0.0206308 -3.6818e-07)
(1.07763 0.0143405 2.67802e-07)
(1.07184 0.00674093 -6.89583e-07)
(1.06975 -0.00188829 3.81223e-07)
(1.07321 -0.0115728 -1.38519e-06)
(1.081 -0.0216914 4.49105e-07)
(1.09548 -0.0325409 -2.16715e-06)
(1.1143 -0.042796 5.55565e-07)
(1.14015 -0.053548 -2.63508e-06)
(1.16989 -0.0621117 5.04058e-07)
(1.20531 -0.0713553 -1.72356e-06)
(1.24462 -0.0762091 -3.85555e-07)
(1.28506 -0.0828082 2.04577e-06)
(1.33206 -0.0823153 -3.73602e-06)
(1.36999 -0.0859383 9.51134e-06)
(1.42394 -0.0794401 -1.11042e-05)
(1.44906 -0.080749 1.56818e-05)
(1.51271 -0.0686759 -1.25896e-05)
(1.00016 -0.00490005 8.12816e-07)
(1.0039 -0.0145807 -1.38446e-06)
(1.01136 -0.0238123 -2.36867e-06)
(1.02244 -0.03225 -1.6367e-06)
(1.03669 -0.0395826 -9.59694e-07)
(1.05356 -0.0455554 -6.67372e-07)
(1.07247 -0.0499788 -3.89527e-07)
(1.09276 -0.0527426 1.32694e-07)
(1.11374 -0.0538289 6.99582e-07)
(1.13472 -0.0533136 1.19184e-06)
(1.1551 -0.0513549 1.5242e-06)
(1.17433 -0.0481673 1.63649e-06)
(1.19201 -0.0439854 1.52812e-06)
(1.20784 -0.0390272 1.27597e-06)
(1.2216 -0.0334703 9.86314e-07)
(1.23315 -0.0274433 7.53862e-07)
(1.24236 -0.0210357 6.17798e-07)
(1.24913 -0.014312 5.68115e-07)
(1.25336 -0.00733387 5.61784e-07)
(1.25494 -0.000169704 5.27403e-07)
(1.2538 0.00708767 6.66385e-07)
(1.24991 0.0143049 9.20538e-07)
(1.24327 0.0213177 1.09254e-06)
(1.23394 0.0279181 1.20059e-06)
(1.22212 0.033867 1.16155e-06)
(1.20804 0.0389034 1.12729e-06)
(1.19214 0.0427637 9.15048e-07)
(1.17483 0.0451959 8.20341e-07)
(1.15683 0.0459761 4.5923e-07)
(1.13866 0.0449302 4.42685e-07)
(1.12128 0.0419253 -4.61353e-08)
(1.1052 0.0369159 2.054e-07)
(1.09162 0.0298711 -4.45403e-07)
(1.08076 0.0209145 2.62424e-07)
(1.07419 0.0100798 -7.42332e-07)
(1.07149 -0.00225363 4.47119e-07)
(1.07477 -0.0161142 -1.61403e-06)
(1.08255 -0.0306243 5.02327e-07)
(1.09768 -0.0462119 -2.54793e-06)
(1.11729 -0.06096 7.15962e-07)
(1.14479 -0.0764674 -3.14595e-06)
(1.17618 -0.0887817 8.43916e-07)
(1.21416 -0.102135 -2.22665e-06)
(1.25582 -0.109031 1.30266e-07)
(1.29924 -0.118507 1.88459e-06)
(1.34885 -0.117589 -3.18954e-06)
(1.38939 -0.122659 1.00942e-05)
(1.4458 -0.113088 -1.08255e-05)
(1.47237 -0.114792 1.64775e-05)
(1.53831 -0.0975142 -1.31554e-05)
(1.00017 -0.00650628 8.78066e-07)
(1.00426 -0.0193608 -1.54341e-06)
(1.01242 -0.0316198 -2.64036e-06)
(1.02453 -0.0428214 -1.85061e-06)
(1.0401 -0.0525459 -1.10329e-06)
(1.05854 -0.0604471 -7.6407e-07)
(1.07917 -0.0662644 -3.73854e-07)
(1.10127 -0.0698463 2.95895e-07)
(1.12403 -0.0711708 1.03337e-06)
(1.1467 -0.0703499 1.67605e-06)
(1.16857 -0.0676146 2.0809e-06)
(1.18908 -0.0632758 2.15447e-06)
(1.20782 -0.0576682 1.91383e-06)
(1.2245 -0.0510942 1.49446e-06)
(1.23896 -0.0437889 1.06256e-06)
(1.25108 -0.0359121 7.43277e-07)
(1.26078 -0.0275651 5.78512e-07)
(1.26795 -0.0188154 5.36773e-07)
(1.2725 -0.00972738 5.55523e-07)
(1.2743 -0.000375793 5.63844e-07)
(1.27325 0.00912876 7.19192e-07)
(1.26928 0.018619 1.055e-06)
(1.26237 0.027881 1.30169e-06)
(1.25255 0.0366386 1.45823e-06)
(1.23999 0.0445704 1.43246e-06)
(1.22491 0.0513227 1.40149e-06)
(1.20778 0.0565377 1.15488e-06)
(1.18903 0.0598721 1.02829e-06)
(1.16943 0.0610232 5.89734e-07)
(1.14955 0.0597531 5.37675e-07)
(1.13047 0.0558859 -4.45914e-08)
(1.11268 0.0493544 2.15373e-07)
(1.09756 0.0401232 -5.44456e-07)
(1.08528 0.0283422 2.59037e-07)
(1.07767 0.0140623 -1.05472e-06)
(1.07413 -0.00224247 4.03732e-07)
(1.07718 -0.0205932 -1.91164e-06)
(1.085 -0.0398656 5.4543e-07)
(1.10108 -0.0606087 -3.00551e-06)
(1.12183 -0.080277 8.39585e-07)
(1.15169 -0.101013 -3.80314e-06)
(1.18541 -0.11743 1.10302e-06)
(1.22697 -0.135304 -3.00198e-06)
(1.27183 -0.144334 4.8674e-07)
(1.31932 -0.156883 1.32484e-06)
(1.37233 -0.155266 -2.88935e-06)
(1.41628 -0.161702 1.02966e-05)
(1.47566 -0.148529 -1.06431e-05)
(1.50404 -0.150415 1.70252e-05)
(1.57246 -0.127511 -1.37055e-05)
(1.00019 -0.00827764 9.61189e-07)
(1.00473 -0.0246324 -1.73968e-06)
(1.01381 -0.0402325 -3.00034e-06)
(1.02728 -0.0544846 -2.14297e-06)
(1.04461 -0.0668441 -1.31085e-06)
(1.06512 -0.0768576 -9.18944e-07)
(1.08806 -0.0841765 -3.56055e-07)
(1.11256 -0.0885974 5.38144e-07)
(1.1377 -0.0900942 1.54335e-06)
(1.1626 -0.0888267 2.43311e-06)
(1.18645 -0.0851244 2.95262e-06)
(1.20862 -0.0794282 2.94895e-06)
(1.2287 -0.0722033 2.47946e-06)
(1.24646 -0.0638553 1.7903e-06)
(1.26179 -0.0546806 1.14278e-06)
(1.27464 -0.0448624 7.05565e-07)
(1.28496 -0.0345009 5.15255e-07)
(1.29266 -0.0236527 4.93284e-07)
(1.29764 -0.0123712 5.52401e-07)
(1.29975 -0.000727791 6.1473e-07)
(1.29885 0.0111583 8.00474e-07)
(1.29481 0.0230891 1.25387e-06)
(1.28758 0.0347984 1.60971e-06)
(1.27713 0.0459337 1.83283e-06)
(1.26361 0.0560787 1.82746e-06)
(1.24723 0.0647723 1.80256e-06)
(1.22849 0.0715457 1.5066e-06)
(1.20784 0.0759484 1.33272e-06)
(1.18616 0.0775862 7.81036e-07)
(1.16404 0.0761472 6.8229e-07)
(1.14271 0.0714091 -3.50922e-08)
(1.1227 0.0632773 2.51115e-07)
(1.10558 0.0517157 -6.47009e-07)
(1.09148 0.0368908 2.61447e-07)
(1.08252 0.0188826 -1.17506e-06)
(1.07792 -0.00176033 5.04506e-07)
(1.08073 -0.0250175 -2.15714e-06)
(1.08861 -0.0495652 5.53337e-07)
(1.10598 -0.0760153 -3.39508e-06)
(1.12827 -0.101197 8.20058e-07)
(1.16117 -0.127767 -4.47849e-06)
(1.19792 -0.148758 9.62403e-07)
(1.24392 -0.171626 -4.12076e-06)
(1.29272 -0.182871 1.42049e-07)
(1.3449 -0.198639 -3.16135e-08)
(1.40178 -0.195908 -3.4462e-06)
(1.44936 -0.203497 9.38572e-06)
(1.51173 -0.185989 -1.0906e-05)
(1.54185 -0.187712 1.66748e-05)
(1.6123 -0.158605 -1.39992e-05)
(1.00022 -0.0102628 1.06524e-06)
(1.00534 -0.0305385 -1.95588e-06)
(1.01558 -0.0498892 -3.46059e-06)
(1.03079 -0.0675676 -2.52273e-06)
(1.05038 -0.0828855 -1.60497e-06)
(1.07358 -0.0952594 -1.1592e-06)
(1.09951 -0.104226 -3.44152e-07)
(1.12714 -0.109512 8.83789e-07)
(1.15538 -0.111086 2.30236e-06)
(1.18316 -0.10917 3.59215e-06)
(1.20953 -0.104233 4.2959e-06)
(1.23379 -0.0968957 4.15812e-06)
(1.25553 -0.087798 3.30272e-06)
(1.2746 -0.0774742 2.17759e-06)
(1.29098 -0.0662826 1.17091e-06)
(1.30472 -0.054417 5.78177e-07)
(1.31582 -0.0419559 3.92841e-07)
(1.3242 -0.0289274 4.12298e-07)
(1.32975 -0.0153546 5.33152e-07)
(1.33228 -0.00129095 6.64413e-07)
(1.3316 0.0131471 9.0275e-07)
(1.32752 0.0277355 1.52322e-06)
(1.31991 0.0421515 2.03334e-06)
(1.30869 0.0559546 2.35105e-06)
(1.29396 0.0686172 2.37961e-06)
(1.27593 0.0795491 2.36751e-06)
(1.25513 0.0881483 2.00617e-06)
(1.23207 0.0938349 1.76172e-06)
(1.20771 0.0961066 1.06293e-06)
(1.18274 0.094565 8.96195e-07)
(1.15856 0.0889381 1.43155e-08)
(1.13573 0.079097 3.16263e-07)
(1.11609 0.0650165 -7.11945e-07)
(1.09969 0.0468594 3.51548e-07)
(1.08904 0.0247699 -1.1322e-06)
(1.08313 -0.000695057 8.19486e-07)
(1.0856 -0.0293856 -2.1362e-06)
(1.09361 -0.0598761 5.78639e-07)
(1.11247 -0.0927122 -3.44062e-06)
(1.13671 -0.124164 4.81274e-07)
(1.17303 -0.15725 -4.9115e-06)
(1.21338 -0.183346 -9.11146e-08)
(1.26386 -0.211607 -5.57798e-06)
(1.31683 -0.225049 -1.76989e-06)
(1.37302 -0.243985 -2.61055e-06)
(1.43341 -0.239567 -5.53771e-06)
(1.48352 -0.247903 6.51074e-06)
(1.54809 -0.225216 -1.20025e-05)
(1.57907 -0.226299 1.46343e-05)
(1.65032 -0.190342 -1.36389e-05)
(1.00025 -0.0125184 1.19141e-06)
(1.0061 -0.037243 -2.15874e-06)
(1.01779 -0.0608677 -4.04914e-06)
(1.0352 -0.0824556 -2.99884e-06)
(1.05765 -0.101156 -2.0347e-06)
(1.08427 -0.116222 -1.53266e-06)
(1.11403 -0.127032 -3.28829e-07)
(1.14569 -0.133222 1.40373e-06)
(1.17793 -0.134737 3.46355e-06)
(1.20939 -0.131887 5.3614e-06)
(1.23894 -0.125339 6.30697e-06)
(1.26577 -0.115973 5.92018e-06)
(1.2895 -0.104669 4.44984e-06)
(1.31011 -0.0921196 2.60055e-06)
(1.32774 -0.0787405 1.00117e-06)
(1.34254 -0.0647119 2.25598e-07)
(1.35459 -0.0500609 1.18571e-07)
(1.36382 -0.0347648 2.17551e-07)
(1.3701 -0.0187898 4.36513e-07)
(1.3732 -0.00215261 6.77581e-07)
(1.37286 0.0150489 9.96432e-07)
(1.36877 0.0325723 1.83181e-06)
(1.36073 0.0500306 2.54598e-06)
(1.34855 0.0668778 3.00385e-06)
(1.33233 0.0824533 3.10355e-06)
(1.31223 0.0960082 3.12947e-06)
(1.28883 0.106777 2.69464e-06)
(1.2627 0.114021 2.35892e-06)
(1.23496 0.117109 1.48147e-06)
(1.2064 0.115539 1.22958e-06)
(1.17863 0.108993 1.90769e-07)
(1.15229 0.0972934 5.03718e-07)
(1.12951 0.0804509 -6.59303e-07)
(1.11026 0.0586002 5.2592e-07)
(1.09748 0.0319943 -9.32146e-07)
(1.08993 0.00114867 1.77588e-06)
(1.09185 -0.0336383 -1.52159e-06)
(1.09995 -0.0708762 7.33287e-07)
(1.12019 -0.110866 -2.65866e-06)
(1.1466 -0.149422 -2.3432e-07)
(1.18586 -0.189621 -4.46879e-06)
(1.2297 -0.22123 -2.3032e-06)
(1.28289 -0.254918 -6.60158e-06)
(1.33892 -0.270289 -5.20627e-06)
(1.39601 -0.291954 -5.6937e-06)
(1.45814 -0.285217 -8.74275e-06)
(1.50761 -0.293735 2.16531e-06)
(1.57263 -0.265184 -1.31361e-05)
(1.60256 -0.265143 1.10319e-05)
(1.67274 -0.221813 -1.17496e-05)
(1.00028 -0.0151108 1.34011e-06)
(1.00704 -0.0449338 -2.28155e-06)
(1.02052 -0.0734961 -4.81347e-06)
(1.04066 -0.0996051 -3.56175e-06)
(1.06668 -0.122246 -2.70892e-06)
(1.09762 -0.140448 -2.13496e-06)
(1.13227 -0.153369 -3.30532e-07)
(1.16912 -0.160517 2.21626e-06)
(1.20648 -0.161786 5.38657e-06)
(1.24265 -0.157596 8.21763e-06)
(1.27617 -0.148908 9.33534e-06)
(1.30612 -0.136983 8.32462e-06)
(1.3322 -0.123037 5.79124e-06)
(1.35458 -0.107962 2.65189e-06)
(1.37364 -0.0922063 3.87424e-07)
(1.38969 -0.075897 -4.17037e-07)
(1.40287 -0.0589666 -3.99925e-07)
(1.41314 -0.041315 -2.47324e-07)
(1.42036 -0.0228151 1.08521e-07)
(1.42419 -0.00342519 5.08347e-07)
(1.4243 0.0168001 9.94206e-07)
(1.42025 0.0376105 2.08627e-06)
(1.4117 0.0585418 3.01467e-06)
(1.39837 0.0789189 3.65259e-06)
(1.38028 0.0979177 3.89664e-06)
(1.35757 0.11459 4.03392e-06)
(1.3309 0.127968 3.55693e-06)
(1.3009 0.137109 3.14969e-06)
(1.26891 0.141236 2.08384e-06)
(1.23584 0.139719 1.75969e-06)
(1.2036 0.132201 5.91676e-07)
(1.17289 0.11845 9.73558e-07)
(1.14619 0.0985379 -2.37102e-07)
(1.12342 0.0725507 1.05806e-06)
(1.10792 0.0408991 -3.98573e-07)
(1.09826 0.00402397 2.92711e-06)
(1.09906 -0.0375792 9.58503e-09)
(1.107 -0.0824073 1.37746e-06)
(1.12782 -0.130288 -3.33941e-07)
(1.15596 -0.17663 -8.11155e-07)
(1.19603 -0.224096 -1.84919e-06)
(1.2415 -0.261111 -4.70377e-06)
(1.29265 -0.29945 -4.78747e-06)
(1.34814 -0.316105 -8.12319e-06)
(1.39995 -0.339593 -5.78832e-06)
(1.46035 -0.330174 -9.75853e-06)
(1.50419 -0.338434 1.22903e-07)
(1.5675 -0.303971 -1.06547e-05)
(1.59387 -0.30262 8.83114e-06)
(1.66129 -0.251786 -6.33825e-06)
(1.00033 -0.018118 1.51526e-06)
(1.00818 -0.0538235 -2.20672e-06)
(1.02385 -0.0881639 -5.81993e-06)
(1.04735 -0.11956 -4.13694e-06)
(1.0778 -0.146882 -3.83482e-06)
(1.1142 -0.168816 -3.11749e-06)
(1.15508 -0.184218 -5.61241e-07)
(1.19859 -0.192408 3.26282e-06)
(1.24258 -0.193165 8.54509e-06)
(1.28478 -0.187064 1.3076e-05)
(1.32327 -0.175502 1.42122e-05)
(1.35697 -0.160294 1.17547e-05)
(1.38572 -0.143138 6.74365e-06)
(1.41006 -0.125169 1.39238e-06)
(1.43068 -0.106828 -1.35065e-06)
(1.44812 -0.0881214 -1.86554e-06)
(1.4626 -0.0688296 -1.56471e-06)
(1.47407 -0.0487408 -1.36461e-06)
(1.48238 -0.0275827 -9.12102e-07)
(1.4871 -0.00523125 -2.16025e-07)
(1.48778 0.0183321 6.56992e-07)
(1.4838 0.0428673 2.04734e-06)
(1.47464 0.0678148 3.13722e-06)
(1.45988 0.0923404 3.99114e-06)
(1.43947 0.115418 4.47687e-06)
(1.4135 0.135845 4.82677e-06)
(1.38272 0.15239 4.39706e-06)
(1.34786 0.163857 4.01461e-06)
(1.31054 0.169289 2.85366e-06)
(1.27184 0.167912 2.55095e-06)
(1.23402 0.15934 1.33153e-06)
(1.1979 0.143295 1.88692e-06)
(1.16629 0.11994 8.09645e-07)
(1.13913 0.0893139 2.35454e-06)
(1.12002 0.0520152 1.03542e-06)
(1.1075 0.0083865 9.74321e-07)
(1.10613 -0.0406931 2.22506e-06)
(1.11303 -0.0937981 3.15642e-06)
(1.1326 -0.150007 4.18592e-06)
(1.16033 -0.204176 7.23278e-08)
(1.19655 -0.257991 4.65932e-06)
(1.23835 -0.29923 -4.72582e-06)
(1.27932 -0.340286 3.08049e-06)
(1.32756 -0.35737 -6.95329e-06)
(1.36626 -0.381753 1.39205e-06)
(1.42072 -0.370273 -4.74881e-06)
(1.45452 -0.378615 4.6437e-06)
(1.51495 -0.33932 -9.66302e-07)
(1.53625 -0.337126 1.19038e-05)
(1.60059 -0.27916 4.80317e-06)
(1.00039 -0.0216302 1.73738e-06)
(1.00956 -0.0641475 -1.76555e-06)
(1.02784 -0.105335 -7.1356e-06)
(1.05546 -0.142963 -4.514e-06)
(1.09136 -0.175976 -5.71526e-06)
(1.13466 -0.20245 -4.55686e-06)
(1.18351 -0.220866 -1.40432e-06)
(1.23566 -0.230229 4.14014e-06)
(1.28827 -0.230066 1.2984e-05)
(1.33821 -0.221217 2.05861e-05)
(1.3829 -0.20575 2.19491e-05)
(1.42101 -0.186293 1.7152e-05)
(1.45268 -0.165206 6.70349e-06)
(1.47897 -0.143898 -2.17762e-06)
(1.50111 -0.122727 -5.60929e-06)
(1.51988 -0.10149 -5.43465e-06)
(1.53559 -0.0797604 -4.55754e-06)
(1.54823 -0.0571683 -4.13051e-06)
(1.55762 -0.0332228 -3.45253e-06)
(1.56324 -0.00767422 -2.45284e-06)
(1.56451 0.019601 -8.9889e-07)
(1.56057 0.0483908 6.84752e-07)
(1.55068 0.0780169 1.87503e-06)
(1.53421 0.107456 3.19533e-06)
(1.511 0.135436 4.24435e-06)
(1.48105 0.160424 5.01761e-06)
(1.44521 0.180847 4.8031e-06)
(1.40435 0.195182 4.62534e-06)
(1.36041 0.20225 3.59298e-06)
(1.31474 0.201116 3.53878e-06)
(1.27 0.191381 2.53099e-06)
(1.22719 0.172752 3.46123e-06)
(1.18942 0.145521 2.70792e-06)
(1.15672 0.109734 4.43985e-06)
(1.13273 0.0662013 3.40771e-06)
(1.1161 0.0152854 4.37895e-06)
(1.11087 -0.0418038 6.29512e-06)
(1.11465 -0.103462 6.4834e-06)
(1.12957 -0.167604 1.04504e-05)
(1.15167 -0.228218 3.40729e-06)
(1.17612 -0.285632 1.44729e-05)
(1.20451 -0.328539 -1.24866e-06)
(1.22549 -0.369735 1.60378e-05)
(1.25849 -0.387266 -2.64985e-06)
(1.27918 -0.413029 1.36366e-05)
(1.32585 -0.402164 2.9347e-06)
(1.34993 -0.412422 1.33357e-05)
(1.40884 -0.370482 1.22244e-05)
(1.42643 -0.36845 1.83117e-05)
(1.4887 -0.303624 2.00855e-05)
(1.00048 -0.0257459 2.07776e-06)
(1.01116 -0.0761585 -7.71693e-07)
(1.03258 -0.125554 -8.76726e-06)
(1.06517 -0.170556 -4.36833e-06)
(1.10774 -0.210677 -8.79419e-06)
(1.15979 -0.242796 -6.17579e-06)
(1.21887 -0.265048 -2.94452e-06)
(1.28233 -0.275821 5.2025e-06)
(1.34624 -0.274076 1.87648e-05)
(1.40617 -0.261166 2.9702e-05)
(1.45847 -0.240258 3.13062e-05)
(1.50148 -0.215215 2.29343e-05)
(1.53583 -0.189305 5.08245e-06)
(1.5635 -0.164144 -8.66836e-06)
(1.58644 -0.13985 -1.32984e-05)
(1.6058 -0.11591 -1.22662e-05)
(1.62199 -0.0916731 -1.07196e-05)
(1.63513 -0.066545 -9.76072e-06)
(1.64507 -0.0397453 -8.6571e-06)
(1.65122 -0.0108214 -6.94038e-06)
(1.65288 0.0205373 -4.91815e-06)
(1.64889 0.0541668 -4.36593e-06)
(1.6382 0.089247 -3.7368e-06)
(1.61994 0.124529 -1.58248e-06)
(1.59371 0.158432 9.59e-07)
(1.55932 0.188998 2.98421e-06)
(1.51765 0.214205 3.67873e-06)
(1.46972 0.232107 4.25136e-06)
(1.41786 0.241241 3.80053e-06)
(1.3638 0.240497 4.37089e-06)
(1.31063 0.229486 4.0167e-06)
(1.25966 0.207967 5.63954e-06)
(1.21422 0.176404 5.46155e-06)
(1.17449 0.134965 7.23527e-06)
(1.14393 0.0847238 5.67154e-06)
(1.12117 0.0262028 4.37059e-06)
(1.1094 -0.0389029 7.52928e-06)
(1.10631 -0.10846 8.88126e-06)
(1.11084 -0.178438 1.50383e-05)
(1.11784 -0.241805 6.76227e-06)
(1.11965 -0.298194 2.17431e-05)
(1.12284 -0.339953 4.1802e-07)
(1.11754 -0.380548 2.42185e-05)
(1.1321 -0.401818 -4.77769e-06)
(1.13875 -0.432761 2.02169e-05)
(1.18153 -0.4277 1.64295e-06)
(1.2029 -0.442602 1.68081e-05)
(1.26338 -0.400081 1.87556e-05)
(1.28108 -0.398447 2.08008e-05)
(1.3411 -0.32557 3.60174e-05)
(1.00061 -0.0305572 2.72894e-06)
(1.01296 -0.0901239 9.4013e-07)
(1.03815 -0.149442 -1.04243e-05)
(1.07654 -0.203164 -3.64312e-06)
(1.12724 -0.252442 -1.40109e-05)
(1.19043 -0.291674 -7.74979e-06)
(1.26259 -0.319074 -5.47403e-06)
(1.34103 -0.331673 8.94694e-06)
(1.41994 -0.327411 2.90445e-05)
(1.49278 -0.308389 3.97203e-05)
(1.55387 -0.279481 3.65218e-05)
(1.60114 -0.246731 1.97206e-05)
(1.63632 -0.214751 -4.67256e-06)
(1.66303 -0.185123 -2.06739e-05)
(1.68429 -0.157378 -2.40426e-05)
(1.7017 -0.130562 -2.08764e-05)
(1.71595 -0.103828 -1.86074e-05)
(1.72748 -0.0762549 -1.68611e-05)
(1.7363 -0.0467228 -1.47578e-05)
(1.74189 -0.0145033 -1.17165e-05)
(1.74344 0.0210063 -9.23936e-06)
(1.73941 0.0598056 -1.20808e-05)
(1.72839 0.101018 -1.47037e-05)
(1.70906 0.143169 -1.30802e-05)
(1.68061 0.18426 -9.26371e-06)
(1.6424 0.221748 -5.09815e-06)
(1.59512 0.252988 -2.10692e-06)
(1.5399 0.275454 7.09823e-07)
(1.47941 0.287304 2.01679e-06)
(1.4159 0.287239 3.97148e-06)
(1.35298 0.274914 4.87407e-06)
(1.2924 0.250256 7.49889e-06)
(1.23762 0.213975 8.22302e-06)
(1.18909 0.166534 1.02656e-05)
(1.14965 0.109365 8.43598e-06)
(1.11801 0.0433814 6.28739e-06)
(1.09606 -0.0288394 3.67007e-06)
(1.08004 -0.103888 6.21866e-06)
(1.06503 -0.174988 1.33628e-05)
(1.04421 -0.235237 5.13346e-06)
(1.01319 -0.286451 1.84844e-05)
(0.985361 -0.327808 -6.80834e-06)
(0.958514 -0.372887 1.88505e-05)
(0.962438 -0.406216 -1.86501e-05)
(0.968115 -0.448776 1.58909e-05)
(1.01461 -0.454937 -1.28532e-05)
(1.04168 -0.475168 1.21406e-05)
(1.10481 -0.432168 1.40316e-05)
(1.12541 -0.428613 1.67526e-05)
(1.17939 -0.344479 5.14667e-05)
(1.00075 -0.0361178 4.11495e-06)
(1.01488 -0.106346 3.3455e-06)
(1.04458 -0.177629 -1.08858e-05)
(1.08938 -0.241691 -3.40947e-06)
(1.1502 -0.303144 -2.30662e-05)
(1.22727 -0.351265 -1.15088e-05)
(1.31594 -0.385882 -1.31636e-05)
(1.41444 -0.400802 1.44726e-05)
(1.51364 -0.392953 4.83141e-05)
(1.60274 -0.364814 5.66393e-05)
(1.67156 -0.323525 3.47659e-05)
(1.71843 -0.279335 -5.68398e-06)
(1.74806 -0.239152 -3.7076e-05)
(1.76714 -0.204048 -4.54745e-05)
(1.78028 -0.17242 -3.69192e-05)
(1.78968 -0.142708 -2.59158e-05)
(1.79659 -0.113847 -2.14919e-05)
(1.80197 -0.0843694 -1.89969e-05)
(1.80629 -0.0527405 -1.56803e-05)
(1.80919 -0.0178267 -1.19918e-05)
(1.80996 0.021207 -7.11555e-06)
(1.8067 0.0646415 -1.19754e-05)
(1.79738 0.111931 -1.93556e-05)
(1.77999 0.161551 -2.24456e-05)
(1.7528 0.21105 -2.18782e-05)
(1.71424 0.257125 -1.87392e-05)
(1.66433 0.296208 -1.44754e-05)
(1.60399 0.324878 -8.99807e-06)
(1.53611 0.340659 -4.53119e-06)
(1.46355 0.341983 2.22416e-07)
(1.39052 0.328617 3.36531e-06)
(1.31947 0.300822 7.39908e-06)
(1.25398 0.259679 9.26406e-06)
(1.19472 0.206254 1.20051e-05)
(1.14379 0.142506 1.1e-05)
(1.10003 0.0698039 7.84482e-06)
(1.06297 -0.00789425 -6.16567e-06)
(1.02507 -0.0827321 -5.29685e-06)
(0.97863 -0.147684 2.37473e-06)
(0.919769 -0.199966 -3.94904e-06)
(0.855404 -0.247955 4.84007e-06)
(0.806058 -0.297743 -1.88619e-05)
(0.77489 -0.358551 6.46612e-06)
(0.782195 -0.413213 -3.3823e-05)
(0.798228 -0.47105 9.13507e-06)
(0.851443 -0.490059 -2.99374e-05)
(0.886474 -0.512373 8.65888e-06)
(0.949656 -0.467268 5.6686e-06)
(0.972715 -0.457161 1.3692e-05)
(1.01551 -0.357961 6.9959e-05)
(1.00077 -0.0424061 6.98394e-06)
(1.01699 -0.125187 6.12889e-06)
(1.05156 -0.210527 -6.99795e-06)
(1.10317 -0.287288 -6.04713e-06)
(1.17681 -0.365137 -3.59625e-05)
(1.26999 -0.424084 -2.56096e-05)
(1.37971 -0.469465 -3.78762e-05)
(1.50566 -0.487248 8.14138e-06)
(1.63149 -0.473527 6.51731e-05)
(1.73679 -0.430828 8.61527e-05)
(1.80388 -0.369991 4.72231e-05)
(1.83579 -0.308546 -2.98924e-05)
(1.84392 -0.256631 -7.9001e-05)
(1.84064 -0.214243 -7.49472e-05)
(1.83278 -0.178131 -4.2782e-05)
(1.82312 -0.14603 -1.72283e-05)
(1.81363 -0.116402 -9.26245e-06)
(1.80602 -0.0867511 -7.03359e-06)
(1.80148 -0.055086 -5.01001e-06)
(1.79955 -0.0194145 -4.77176e-06)
(1.79983 0.0212164 -2.09962e-06)
(1.80024 0.0673086 -5.19366e-06)
(1.79798 0.119208 -1.11782e-05)
(1.78975 0.17574 -1.61521e-05)
(1.77223 0.234187 -2.01535e-05)
(1.74218 0.290452 -2.28296e-05)
(1.69807 0.339744 -2.39815e-05)
(1.63982 0.377244 -2.18934e-05)
(1.57007 0.399324 -1.74555e-05)
(1.49224 0.403819 -1.05533e-05)
(1.41127 0.390522 -4.48572e-06)
(1.33057 0.360216 1.76663e-06)
(1.25413 0.314673 5.30972e-06)
(1.18273 0.255938 8.78557e-06)
(1.11776 0.186628 8.50296e-06)
(1.05802 0.109316 7.48002e-06)
(0.999757 0.0310237 2.61238e-06)
(0.929695 -0.0367356 -1.7308e-05)
(0.842855 -0.0895899 -1.33754e-05)
(0.749064 -0.136955 -1.46551e-05)
(0.667969 -0.194048 -8.4758e-06)
(0.618254 -0.266149 -2.59079e-05)
(0.598814 -0.351528 -5.24078e-06)
(0.615585 -0.429967 -4.19948e-05)
(0.642607 -0.50107 4.66376e-06)
(0.698799 -0.531105 -4.01013e-05)
(0.73886 -0.551133 1.24702e-05)
(0.799057 -0.502766 1.93481e-07)
(0.822695 -0.480907 1.77747e-05)
(0.851377 -0.363669 9.27576e-05)
(1.00044 -0.0493253 1.21908e-05)
(1.01959 -0.146927 1.0024e-05)
(1.05781 -0.247966 6.46982e-06)
(1.1174 -0.341717 -1.18478e-05)
(1.20583 -0.440654 -4.37625e-05)
(1.31587 -0.51353 -6.02041e-05)
(1.4548 -0.576896 -8.53236e-05)
(1.61828 -0.598637 -1.51734e-05)
(1.77078 -0.568354 4.81426e-05)
(1.87416 -0.496812 9.6704e-05)
(1.90865 -0.404862 0.000113718)
(1.89406 -0.319936 2.87287e-05)
(1.85048 -0.252842 -6.03753e-05)
(1.8003 -0.20176 -6.62019e-05)
(1.75283 -0.161454 -1.69946e-05)
(1.71066 -0.129138 1.47746e-05)
(1.67609 -0.10207 2.1219e-05)
(1.65128 -0.076453 2.1489e-05)
(1.63769 -0.0493707 1.8713e-05)
(1.63411 -0.0181933 1.32581e-05)
(1.63945 0.0192022 6.14685e-06)
(1.65149 0.0639784 7.35876e-06)
(1.6666 0.117275 9.55022e-06)
(1.67966 0.178577 8.65962e-06)
(1.68528 0.24529 4.36081e-06)
(1.67809 0.312691 -2.52815e-06)
(1.65424 0.374634 -1.12745e-05)
(1.61173 0.424468 -1.87379e-05)
(1.55195 0.456699 -2.32875e-05)
(1.47822 0.46793 -2.25003e-05)
(1.39598 0.457612 -1.82754e-05)
(1.31 0.426923 -1.18672e-05)
(1.22476 0.378742 -7.08577e-06)
(1.14143 0.316518 -3.30543e-06)
(1.0618 0.243637 -3.69759e-06)
(0.982568 0.165979 -4.42967e-06)
(0.893827 0.095837 -5.03598e-06)
(0.785399 0.0415149 -4.63555e-06)
(0.665841 -0.00428037 -1.70658e-05)
(0.558448 -0.0617198 -1.95724e-05)
(0.484257 -0.143537 -1.77918e-05)
(0.448869 -0.245329 -2.97985e-05)
(0.44437 -0.355201 -1.64836e-05)
(0.467675 -0.453684 -4.30685e-05)
(0.501101 -0.534773 1.70838e-07)
(0.555635 -0.573782 -4.22566e-05)
(0.59773 -0.588888 1.87752e-05)
(0.653215 -0.537003 -4.54359e-06)
(0.675634 -0.498137 2.62146e-05)
(0.689424 -0.360927 0.000114652)
(0.999695 -0.056752 1.95193e-05)
(1.02256 -0.171093 2.02087e-05)
(1.06094 -0.289128 3.36173e-05)
(1.13128 -0.406704 -1.25407e-05)
(1.23078 -0.529936 -2.36094e-05)
(1.36023 -0.626514 -0.000111574)
(1.54192 -0.720384 -0.000124126)
(1.74724 -0.740017 -4.28773e-05)
(1.89625 -0.663542 1.54253e-05)
(1.93069 -0.528958 3.86562e-05)
(1.86309 -0.387232 0.000154995)
(1.75043 -0.277633 0.00012368)
(1.61192 -0.198073 2.10377e-05)
(1.49345 -0.143524 -9.07703e-06)
(1.40033 -0.105034 2.85113e-05)
(1.32988 -0.080008 3.57019e-05)
(1.28203 -0.0638367 2.40862e-05)
(1.25731 -0.0507985 2.10974e-05)
(1.25377 -0.0365493 2.12291e-05)
(1.26778 -0.0176799 1.77243e-05)
(1.2962 0.00938907 1.21233e-05)
(1.33514 0.0478237 1.91487e-05)
(1.3804 0.0987465 2.88604e-05)
(1.42606 0.162064 3.48609e-05)
(1.46573 0.23563 3.45191e-05)
(1.49275 0.314333 2.86293e-05)
(1.50154 0.390769 1.70648e-05)
(1.48804 0.456293 2.18247e-06)
(1.45164 0.503102 -1.26203e-05)
(1.39445 0.525939 -2.28258e-05)
(1.32167 0.523134 -2.7819e-05)
(1.23857 0.496111 -2.72327e-05)
(1.14986 0.449098 -2.49874e-05)
(1.05847 0.386433 -2.32878e-05)
(0.965736 0.313889 -2.5201e-05)
(0.863049 0.243769 -2.61813e-05)
(0.74004 0.188989 -2.43208e-05)
(0.601719 0.144991 -1.90569e-05)
(0.473451 0.0899293 -1.5209e-05)
(0.378758 0.0059055 -1.86155e-05)
(0.325519 -0.107571 -2.39755e-05)
(0.307755 -0.23706 -3.07559e-05)
(0.315296 -0.366808 -2.36999e-05)
(0.341892 -0.48054 -3.79231e-05)
(0.377548 -0.569387 -5.70432e-06)
(0.426957 -0.615357 -3.838e-05)
(0.468305 -0.624669 2.11707e-05)
(0.51749 -0.5689 -9.27039e-06)
(0.536931 -0.508008 3.45541e-05)
(0.536295 -0.350212 0.000129067)
(0.998996 -0.0644378 2.69199e-05)
(1.02408 -0.195619 4.15669e-05)
(1.05915 -0.332849 6.65189e-05)
(1.13964 -0.480087 1.1311e-05)
(1.23855 -0.63091 3.88354e-05)
(1.40017 -0.774068 -0.000183816)
(1.62886 -0.904879 -7.11942e-05)
(1.83764 -0.878911 -0.000144157)
(1.89349 -0.786325 5.09344e-05)
(1.79043 -0.536841 -0.000147444)
(1.54925 -0.304125 -0.000107337)
(1.27733 -0.158097 -4.96578e-05)
(0.864856 -0.0461344 -2.22002e-05)
(0.76553 -0.028799 -2.01089e-05)
(0.715219 -0.024157 2.85587e-05)
(0.694351 -0.0310512 1.68678e-05)
(0.700297 -0.042415 3.68448e-06)
(0.728593 -0.0513682 7.13963e-06)
(0.772079 -0.0543062 6.62582e-06)
(0.826149 -0.0485588 3.81952e-06)
(0.888986 -0.0309507 4.25999e-06)
(0.958112 0.00152941 6.26268e-06)
(1.03035 0.0506319 1.59441e-05)
(1.10236 0.116727 3.08022e-05)
(1.1692 0.197767 3.87265e-05)
(1.22473 0.288622 3.99851e-05)
(1.26307 0.381114 3.29727e-05)
(1.27896 0.464988 1.88833e-05)
(1.26971 0.530241 6.7953e-07)
(1.23547 0.5694 -1.58309e-05)
(1.1797 0.579383 -2.82582e-05)
(1.10675 0.561647 -3.48757e-05)
(1.02174 0.520544 -3.83923e-05)
(0.928121 0.461944 -4.12807e-05)
(0.822552 0.397877 -4.41664e-05)
(0.69506 0.343922 -4.2538e-05)
(0.54856 0.302029 -3.61339e-05)
(0.406211 0.252458 -2.53344e-05)
(0.295858 0.172025 -1.55771e-05)
(0.229145 0.0544231 -1.0337e-05)
(0.201187 -0.0886501 -1.77512e-05)
(0.200588 -0.239864 -2.27035e-05)
(0.217483 -0.383853 -2.17114e-05)
(0.245248 -0.50775 -2.84471e-05)
(0.278795 -0.602015 -1.00862e-05)
(0.319749 -0.652704 -2.97711e-05)
(0.356718 -0.656955 1.90789e-05)
(0.397746 -0.596629 -9.86177e-06)
(0.41297 -0.510349 4.00765e-05)
(0.400214 -0.332974 0.000132314)
(0.998724 -0.0715293 3.25423e-05)
(1.02159 -0.217227 7.02861e-05)