/*--------------------------------*- C++ -*----------------------------------*\
  =========                 |
  \\      /  F ield         | OpenFOAM: The Open Source CFD Toolbox
   \\    /   O peration     | Website:  https://openfoam.org
    \\  /    A nd           | Version:  8
     \\/     M anipulation  |
\*---------------------------------------------------------------------------*/
FoamFile
{
    version     2.0;
    format      ascii;
    class       volScalarField;
    location    "28";
    object      p;
}
// * * * * * * * * * * * * * * * * * * * * * * * * * * * * * * * * * * * * * //

dimensions      [0 2 -2 0 0 0 0];

internalField   nonuniform List<scalar> 
11600
(
-2.40738e-07
-5.07931e-07
-2.11777e-08
8.55021e-07
2.26404e-06
4.17331e-06
6.5807e-06
9.48666e-06
1.28922e-05
1.67989e-05
2.12088e-05
2.61243e-05
3.15484e-05
3.7484e-05
4.39345e-05
5.09033e-05
5.83942e-05
6.6411e-05
7.49577e-05
8.40386e-05
9.3658e-05
0.00010382
0.000114531
0.000125794
0.000137614
0.000149996
0.000162946
0.000176469
0.000190568
0.00020525
0.00022052
0.000236381
0.00025284
0.0002699
0.000287566
0.000305842
0.000324734
0.000344245
0.00036438
0.000385142
0.000406536
0.000428566
0.000451236
0.000474549
0.000498511
0.000523126
0.000548401
0.000574341
0.000600955
0.000628253
0.000656248
0.000684955
0.000714394
0.000744583
0.000775536
0.00080732
0.000840098
0.000871487
0.000913395
0.000928304
1.49715e-08
-2.47208e-07
3.10453e-07
1.21659e-06
2.64139e-06
4.5573e-06
6.96628e-06
9.87149e-06
1.3275e-05
1.71791e-05
2.1586e-05
2.64982e-05
3.19186e-05
3.78503e-05
4.42964e-05
5.12605e-05
5.87463e-05
6.67577e-05
7.52986e-05
8.43734e-05
9.39864e-05
0.000104142
0.000114845
0.000126101
0.000137913
0.000150288
0.000163229
0.000176743
0.000190834
0.000205506
0.000220766
0.000236618
0.000253066
0.000270116
0.000287771
0.000306038
0.000324919
0.000344419
0.000364543
0.000385295
0.000406679
0.000428698
0.000451358
0.000474663
0.000498617
0.000523226
0.000548496
0.000574435
0.000601051
0.000628359
0.000656373
0.000685117
0.000714622
0.000744934
0.000776127
0.000808358
0.000841771
0.000876108
0.000916539
0.000949803
-4.85358e-07
-8.17047e-07
-2.5812e-07
6.40181e-07
2.06193e-06
3.97501e-06
6.38114e-06
9.2832e-06
1.2683e-05
1.65825e-05
2.09844e-05
2.5891e-05
3.13054e-05
3.72305e-05
4.36696e-05
5.06262e-05
5.81041e-05
6.61071e-05
7.46392e-05
8.37049e-05
9.33084e-05
0.000103454
0.000114147
0.000125392
0.000137194
0.000149558
0.000162489
0.000175992
0.000190071
0.000204733
0.000219981
0.000235822
0.000252259
0.000269297
0.000286941
0.000305196
0.000324067
0.000343556
0.00036367
0.000384411
0.000405784
0.000427793
0.000450443
0.000473737
0.00049768
0.000522278
0.000547535
0.000573459
0.000600059
0.000627345
0.000655333
0.00068404
0.000713493
0.000743725
0.000774788
0.000806771
0.000839742
0.000873777
0.000911048
0.000945038
-1.39885e-06
-1.76163e-06
-1.19526e-06
-2.98223e-07
1.12371e-06
3.03493e-06
5.43752e-06
8.33487e-06
1.17289e-05
1.56217e-05
2.00159e-05
2.4914e-05
3.03191e-05
3.62341e-05
4.26624e-05
4.96076e-05
5.70733e-05
6.50635e-05
7.35823e-05
8.2634e-05
9.2223e-05
0.000102354
0.000113032
0.000124261
0.000136047
0.000148395
0.000161309
0.000174795
0.000188857
0.000203502
0.000218733
0.000234556
0.000250976
0.000267997
0.000285625
0.000303863
0.000322717
0.00034219
0.000362287
0.000383013
0.00040437
0.000426364
0.000448998
0.000472277
0.000496203
0.000520783
0.000546022
0.000571925
0.000598502
0.000625761
0.000653716
0.000682386
0.000711794
0.000741976
0.000772984
0.000804892
0.000837779
0.000871819
0.00090755
0.00094298
-2.87323e-06
-3.25405e-06
-2.68786e-06
-1.79614e-06
-3.77763e-07
1.52879e-06
3.92554e-06
6.81599e-06
1.02021e-05
1.4086e-05
1.84701e-05
2.33573e-05
2.87503e-05
3.46523e-05
4.10668e-05
4.79972e-05
5.54473e-05
6.34211e-05
7.19228e-05
8.09568e-05
9.05275e-05
0.00010064
0.000111298
0.000122508
0.000134273
0.0001466
0.000159494
0.000172959
0.000187
0.000201624
0.000216834
0.000232636
0.000249035
0.000266035
0.000283642
0.000301861
0.000320695
0.000340149
0.000360227
0.000380934
0.000402273
0.000424249
0.000446864
0.000470123
0.000494029
0.000518587
0.0005438
0.000569674
0.000596215
0.000623431
0.00065133
0.000679924
0.00070923
0.000739268
0.000770064
0.000801651
0.000834061
0.000867357
0.000901589
0.000936057
-4.87744e-06
-5.26703e-06
-4.70285e-06
-3.81686e-06
-2.40351e-06
-5.03096e-07
1.88624e-06
4.76795e-06
8.14403e-06
1.20166e-05
1.63883e-05
2.12616e-05
2.66397e-05
3.25256e-05
3.89229e-05
4.5835e-05
5.32658e-05
6.12194e-05
6.97e-05
7.87121e-05
8.82601e-05
9.8349e-05
0.000108984
0.000120169
0.00013191
0.000144212
0.00015708
0.000170519
0.000184535
0.000199133
0.000214317
0.000230094
0.000246468
0.000263443
0.000281026
0.00029922
0.000318031
0.000337462
0.000357518
0.000378203
0.000399521
0.000421474
0.000444068
0.000467304
0.000491187
0.000515718
0.000540902
0.000566741
0.00059324
0.000620403
0.000648235
0.000676742
0.00070593
0.000735809
0.000766387
0.000797667
0.000829645
0.000862303
0.000895549
0.000929069
-7.40778e-06
-7.80147e-06
-7.23998e-06
-6.35982e-06
-4.95275e-06
-3.05998e-06
-6.79715e-07
2.19142e-06
5.5554e-06
9.41442e-06
1.3771e-05
1.86279e-05
2.3988e-05
2.98547e-05
3.62313e-05
4.31216e-05
5.05294e-05
5.84589e-05
6.69144e-05
7.59004e-05
8.54216e-05
9.54828e-05
0.000106089
0.000117246
0.000128957
0.000141229
0.000154067
0.000167477
0.000181462
0.000196029
0.000211184
0.00022693
0.000243275
0.000260221
0.000277775
0.000295942
0.000314725
0.00033413
0.000354161
0.000374821
0.000396114
0.000418044
0.000440613
0.000463824
0.00048768
0.000512182
0.000537334
0.000563135
0.000589588
0.000616694
0.000644452
0.000672864
0.000701926
0.000731636
0.000761985
0.000792955
0.000824513
0.000856601
0.000889097
0.000921776
-1.04614e-05
-1.08579e-05
-1.02997e-05
-9.42559e-06
-8.0259e-06
-6.14218e-06
-3.77265e-06
-9.13963e-07
2.43583e-06
6.27892e-06
1.06179e-05
1.54554e-05
2.07947e-05
2.66389e-05
3.29915e-05
3.98564e-05
4.72374e-05
5.51389e-05
6.35652e-05
7.25209e-05
8.20109e-05
9.204e-05
0.000102613
0.000113736
0.000125414
0.000137652
0.000150455
0.000163829
0.000177779
0.000192312
0.000207431
0.000223143
0.000239454
0.000256367
0.000273889
0.000292024
0.000310777
0.000330152
0.000350154
0.000370786
0.000392052
0.000413955
0.000436498
0.000459682
0.00048351
0.000507983
0.000533101
0.000558864
0.000585271
0.00061232
0.000640007
0.000668326
0.000697268
0.00072682
0.000756961
0.000787659
0.000818864
0.0008505
0.000882444
0.000914515
-1.40353e-05
-1.44347e-05
-1.38804e-05
-1.30128e-05
-1.16214e-05
-9.7481e-06
-7.39093e-06
-4.54658e-06
-1.21311e-06
2.61169e-06
6.9304e-06
1.17459e-05
1.70611e-05
2.28796e-05
2.92047e-05
3.60405e-05
4.33909e-05
5.12603e-05
5.96532e-05
6.85744e-05
7.80286e-05
8.80211e-05
9.8557e-05
0.000109642
0.00012128
0.000133478
0.000146242
0.000159576
0.000173486
0.000187979
0.000203059
0.000218732
0.000235004
0.00025188
0.000269365
0.000287465
0.000306183
0.000325526
0.000345496
0.000366098
0.000387334
0.000409209
0.000431724
0.000454881
0.000478681
0.000503124
0.000528211
0.000553938
0.000580302
0.0006073
0.000634922
0.00066316
0.000691997
0.000721415
0.000751384
0.000781863
0.000812796
0.000844101
0.000875665
0.000907335
-1.81271e-05
-1.85296e-05
-1.79798e-05
-1.71194e-05
-1.57374e-05
-1.38758e-05
-1.15326e-05
-8.7045e-06
-5.38952e-06
-1.58543e-06
2.71038e-06
7.5008e-06
1.2789e-05
1.85783e-05
2.48724e-05
3.16754e-05
3.89912e-05
4.68245e-05
5.51797e-05
6.40619e-05
7.34759e-05
8.34269e-05
9.39204e-05
0.000104962
0.000116556
0.00012871
0.000141429
0.000154718
0.000168583
0.00018303
0.000198066
0.000213695
0.000229924
0.000246758
0.000264203
0.000282263
0.000300944
0.00032025
0.000340185
0.000360754
0.00038196
0.000403805
0.000426291
0.00044942
0.000473194
0.00049761
0.000522667
0.000548363
0.000574692
0.000601646
0.000629217
0.000657389
0.000686146
0.000715461
0.000745301
0.000775623
0.000806366
0.000837453
0.00086878
0.000900222
-2.27348e-05
-2.31403e-05
-2.25957e-05
-2.17433e-05
-2.03717e-05
-1.85232e-05
-1.61956e-05
-1.33857e-05
-1.00914e-05
-6.31051e-06
-2.04032e-06
2.7221e-06
7.97995e-06
1.37367e-05
1.99962e-05
2.67625e-05
3.40398e-05
4.18326e-05
5.01458e-05
5.89843e-05
6.83533e-05
7.82581e-05
8.87042e-05
9.96971e-05
0.000111243
0.000123347
0.000136015
0.000149253
0.000163068
0.000177466
0.000192452
0.000208033
0.000224214
0.000241001
0.000258401
0.000276418
0.000295057
0.000314323
0.000334221
0.000354754
0.000375927
0.000397741
0.000420198
0.000443301
0.000467049
0.000491441
0.000516474
0.000542145
0.000568446
0.00059537
0.000622904
0.000651033
0.000679735
0.000708984
0.000738743
0.000768968
0.000799601
0.000830569
0.000861781
0.000893132
-2.78557e-05
-2.82645e-05
-2.77256e-05
-2.6882e-05
-2.5522e-05
-2.36879e-05
-2.13777e-05
-1.85879e-05
-1.53166e-05
-1.15614e-05
-7.31962e-06
-2.58824e-06
2.63602e-06
8.35676e-06
1.45779e-05
2.13035e-05
2.8538e-05
3.62861e-05
4.45528e-05
5.3343e-05
6.26621e-05
7.25155e-05
8.2909e-05
9.38482e-05
0.000105339
0.000117388
0.00013
0.000143183
0.000156942
0.000171284
0.000186216
0.000201742
0.000217871
0.000234607
0.000251957
0.000269926
0.000288519
0.000307742
0.0003276
0.000348095
0.000369233
0.000391015
0.000413444
0.000436521
0.000460246
0.000484617
0.000509632
0.000535285
0.000561571
0.000588478
0.000615994
0.000644101
0.000672779
0.000701998
0.000731724
0.000761912
0.000792507
0.000823444
0.000854643
0.000886015
-3.34871e-05
-3.38996e-05
-3.33668e-05
-3.25329e-05
-3.11857e-05
-2.93674e-05
-2.70763e-05
-2.43087e-05
-2.10626e-05
-1.73357e-05
-1.31252e-05
-8.42797e-06
-3.24066e-06
2.44043e-06
8.61929e-06
1.53002e-05
2.24877e-05
3.01866e-05
3.8402e-05
4.7139e-05
5.64031e-05
6.62e-05
7.65354e-05
8.74154e-05
9.88461e-05
0.000110834
0.000123385
0.000136506
0.000150204
0.000164485
0.000179356
0.000194823
0.000210893
0.000227573
0.000244868
0.000262785
0.000281329
0.000300505
0.000320318
0.000340774
0.000361875
0.000383624
0.000406025
0.000429077
0.000452782
0.000477137
0.000502139
0.000527785
0.000554065
0.00058097
0.000608486
0.000636597
0.00066528
0.000694508
0.000724246
0.000754452
0.000785076
0.000816058
0.00084733
0.000878815
-3.9626e-05
-4.00425e-05
-3.95164e-05
-3.86931e-05
-3.73597e-05
-3.55589e-05
-3.32885e-05
-3.05452e-05
-2.73267e-05
-2.36308e-05
-1.94545e-05
-1.47946e-05
-9.64771e-06
-4.00998e-06
2.1227e-06
8.75474e-06
1.58908e-05
2.35358e-05
3.1695e-05
4.03737e-05
4.95776e-05
5.93124e-05
6.95842e-05
8.03993e-05
9.17639e-05
0.000103685
0.000116168
0.000129222
0.000142852
0.000157066
0.000171871
0.000187273
0.000203279
0.000219897
0.000237133
0.000254992
0.000273482
0.000292607
0.000312373
0.000332786
0.000353848
0.000375564
0.000397936
0.000420965
0.000444652
0.000468996
0.000493993
0.000519638
0.000545925
0.000572843
0.00060038
0.000628518
0.000657236
0.000686508
0.0007163
0.000746575
0.000777287
0.000808382
0.0008398
0.000871474
-4.62691e-05
-4.66899e-05
-4.61711e-05
-4.53593e-05
-4.4041e-05
-4.22591e-05
-4.00114e-05
-3.72944e-05
-3.4106e-05
-3.04437e-05
-2.63046e-05
-2.16854e-05
-1.65825e-05
-1.09919e-05
-4.90953e-06
1.66929e-06
8.74933e-06
1.63357e-05
2.44336e-05
3.30488e-05
4.21869e-05
5.1854e-05
6.20563e-05
7.28004e-05
8.40929e-05
9.59406e-05
0.000108351
0.00012133
0.000134887
0.000149027
0.000163759
0.00017909
0.000195027
0.000211577
0.000228747
0.000246544
0.000264974
0.000284044
0.00030376
0.000324126
0.000345148
0.000366828
0.000389172
0.000412179
0.000435851
0.000460187
0.000485184
0.000510839
0.000537144
0.000564091
0.000591666
0.000619854
0.000648635
0.000677984
0.000707872
0.000738262
0.000769114
0.00080038
0.000832006
0.000863937
-5.34128e-05
-5.38383e-05
-5.33275e-05
-5.25281e-05
-5.12261e-05
-4.94646e-05
-4.72415e-05
-4.45531e-05
-4.13972e-05
-3.77714e-05
-3.36726e-05
-2.90974e-05
-2.40421e-05
-1.85027e-05
-1.24748e-05
-5.95365e-06
1.06561e-06
8.58823e-06
1.66197e-05
2.51658e-05
3.42324e-05
4.38259e-05
5.39527e-05
6.46195e-05
7.58334e-05
8.76016e-05
9.99314e-05
0.00011283
0.000126306
0.000140367
0.000155019
0.000170272
0.000186133
0.000202609
0.000219707
0.000237436
0.000255802
0.000274812
0.000294473
0.000314789
0.000335767
0.000357411
0.000379724
0.00040271
0.000426369
0.000450701
0.000475705
0.000501377
0.000527712
0.000554701
0.000582332
0.000610592
0.000639462
0.000668919
0.000698937
0.000729484
0.000760522
0.00079201
0.000823901
0.000856144
-6.10534e-05
-6.1484e-05
-6.09816e-05
-6.01956e-05
-5.89113e-05
-5.71718e-05
-5.49752e-05
-5.23176e-05
-4.91969e-05
-4.56104e-05
-4.15551e-05
-3.70274e-05
-3.20235e-05
-2.65393e-05
-2.05702e-05
-1.41114e-05
-7.15786e-06
2.95835e-07
8.25534e-06
1.67266e-05
2.57158e-05
3.52294e-05
4.52743e-05
5.58574e-05
6.69861e-05
7.86679e-05
9.09105e-05
0.000103722
0.00011711
0.000131083
0.00014565
0.000160818
0.000176595
0.00019299
0.000210011
0.000227665
0.00024596
0.000264905
0.000284505
0.000304767
0.000325698
0.000347303
0.000369585
0.000392548
0.000416196
0.000440527
0.000465543
0.00049124
0.000517613
0.000544657
0.000572361
0.000600712
0.000629694
0.000659287
0.000689468
0.000720207
0.000751473
0.000783228
0.000815431
0.000848038
-6.91867e-05
-6.96226e-05
-6.91295e-05
-6.83578e-05
-6.70924e-05
-6.53767e-05
-6.32085e-05
-6.05841e-05
-5.75011e-05
-5.3957e-05
-4.99484e-05
-4.54717e-05
-4.05232e-05
-3.50983e-05
-2.91926e-05
-2.2801e-05
-1.59183e-05
-8.53897e-06
-6.57135e-07
7.73334e-06
1.66389e-05
2.60663e-05
3.60225e-05
4.65151e-05
5.75515e-05
6.91397e-05
8.12879e-05
9.40043e-05
0.000107297
0.000121176
0.000135648
0.000150723
0.00016641
0.000182716
0.000199652
0.000217225
0.000235443
0.000254316
0.00027385
0.000294054
0.000314933
0.000336494
0.000358743
0.000381684
0.000405319
0.000429652
0.000454683
0.00048041
0.000506832
0.000533941
0.000561731
0.00059019
0.000619305
0.000649059
0.00067943
0.000710395
0.000741924
0.000773985
0.000806543
0.000839558
-7.78082e-05
-7.82499e-05
-7.77666e-05
-7.70104e-05
-7.57652e-05
-7.40749e-05
-7.19372e-05
-6.93483e-05
-6.63059e-05
-6.2807e-05
-5.88486e-05
-5.44267e-05
-4.95375e-05
-4.41764e-05
-3.83387e-05
-3.20193e-05
-2.52128e-05
-1.79134e-05
-1.01152e-05
-1.81171e-06
7.00371e-06
1.63381e-05
2.61988e-05
3.65936e-05
4.75304e-05
5.90175e-05
7.10635e-05
8.3677e-05
9.6867e-05
0.000110642
0.000125013
0.000139987
0.000155574
0.000171785
0.000188627
0.000206111
0.000224245
0.000243039
0.000262501
0.000282639
0.000303462
0.000324976
0.000347187
0.000370103
0.000393726
0.00041806
0.000443109
0.000468871
0.000495346
0.00052253
0.000550417
0.000578999
0.000608265
0.0006382
0.000668787
0.000700005
0.000731829
0.000764232
0.000797181
0.000830643
-8.69133e-05
-8.7361e-05
-8.68882e-05
-8.61484e-05
-8.49249e-05
-8.32619e-05
-8.11568e-05
-7.86059e-05
-7.56067e-05
-7.21563e-05
-6.82514e-05
-6.38881e-05
-5.90624e-05
-5.37695e-05
-4.80047e-05
-4.17627e-05
-3.50379e-05
-2.78244e-05
-2.0116e-05
-1.1906e-05
-3.18746e-06
6.04691e-06
1.58048e-05
2.60943e-05
3.69237e-05
4.83018e-05
6.02373e-05
7.27396e-05
8.58179e-05
9.94818e-05
0.000113741
0.000128606
0.000144085
0.00016019
0.000176931
0.000194317
0.000212359
0.000231066
0.000250448
0.000270514
0.000291274
0.000312734
0.000334904
0.000357791
0.000381399
0.000405734
0.000430801
0.0004566
0.000483133
0.000510399
0.000538393
0.00056711
0.000596541
0.000626675
0.000657499
0.000688994
0.00072114
0.000753913
0.000787287
0.00082123
-9.64967e-05
-9.69509e-05
-9.64892e-05
-9.5767e-05
-9.45666e-05
-9.29325e-05
-9.08622e-05
-8.83518e-05
-8.53987e-05
-8.20001e-05
-7.81523e-05
-7.38516e-05
-6.90936e-05
-6.38737e-05
-5.81868e-05
-5.20275e-05
-4.53902e-05
-3.82686e-05
-3.06564e-05
-2.25466e-05
-1.39321e-05
-4.80505e-06
4.84243e-06
1.50188e-05
2.57327e-05
3.69932e-05
4.88097e-05
6.11918e-05
7.41493e-05
8.76924e-05
0.000101831
0.000116577
0.000131939
0.000147929
0.000164559
0.000181838
0.000199778
0.000218389
0.000237682
0.000257669
0.000278357
0.000299758
0.00032188
0.000344732
0.000368322
0.000392655
0.000417738
0.000443575
0.000470169
0.00049752
0.000525627
0.000554487
0.000584095
0.000614443
0.00064552
0.000677312
0.000709803
0.000742972
0.000776798
0.000811253
-0.000106553
-0.000107014
-0.000106564
-0.000105861
-0.000104685
-0.000103082
-0.000101048
-9.8581e-05
-9.5677e-05
-9.23333e-05
-8.85464e-05
-8.43123e-05
-7.96265e-05
-7.44843e-05
-6.88805e-05
-6.28097e-05
-5.62657e-05
-4.92425e-05
-4.17331e-05
-3.37306e-05
-2.52273e-05
-1.62153e-05
-6.68619e-06
3.36869e-06
1.39585e-05
2.50926e-05
3.67809e-05
4.90334e-05
6.18604e-05
7.52727e-05
8.92812e-05
0.000103897
0.000119132
0.000134997
0.000151505
0.000168667
0.000186494
0.000205
0.000224195
0.000244092
0.000264701
0.000286033
0.0003081
0.000330911
0.000354475
0.000378802
0.000403899
0.000429771
0.000456424
0.000483862
0.000512086
0.000541095
0.000570888
0.00060146
0.000632803
0.000664909
0.000697763
0.00073135
0.000765652
0.000800645
-0.000117077
-0.000117545
-0.000117107
-0.000116424
-0.000115274
-0.000113703
-0.000111709
-0.000109288
-0.000106436
-0.000103151
-9.94284e-05
-9.52651e-05
-9.06561e-05
-8.55966e-05
-8.00814e-05
-7.41046e-05
-6.76603e-05
-6.07419e-05
-5.33423e-05
-4.54543e-05
-3.70699e-05
-2.81809e-05
-1.87786e-05
-8.85386e-06
1.60277e-06
1.26011e-05
2.41515e-05
3.62643e-05
4.89506e-05
6.22216e-05
7.60889e-05
9.05645e-05
0.000105661
0.00012139
0.000137764
0.000154797
0.000172502
0.00019089
0.000209976
0.000229772
0.000250291
0.000271545
0.000293547
0.000316308
0.00033984
0.000364153
0.000389257
0.000415161
0.000441871
0.000469394
0.000497734
0.000526895
0.000556878
0.00058768
0.0006193
0.00065173
0.000684962
0.000718984
0.000753781
0.000789334
-0.000128061
-0.000128537
-0.000128113
-0.00012745
-0.000126328
-0.000124792
-0.00012284
-0.000120466
-0.00011767
-0.000114446
-0.000110793
-0.000106704
-0.000102177
-9.72055e-05
-9.17843e-05
-8.59077e-05
-7.95693e-05
-7.27625e-05
-6.54799e-05
-5.7714e-05
-4.94565e-05
-4.06988e-05
-3.1432e-05
-2.16466e-05
-1.13326e-05
-4.79902e-07
1.09222e-05
2.28848e-05
3.54194e-05
4.85379e-05
6.22525e-05
7.6576e-05
9.15213e-05
0.000107102
0.000123331
0.000140223
0.000157792
0.000176051
0.000195015
0.000214698
0.000235115
0.000256279
0.000278204
0.000300905
0.000324395
0.000348685
0.000373788
0.000399715
0.000426476
0.00045408
0.000482535
0.000511847
0.000542019
0.000573056
0.000604957
0.000637719
0.000671339
0.000705808
0.000741115
0.000777247
-0.0001395
-0.000139983
-0.000139574
-0.000138933
-0.00013784
-0.000136341
-0.000134432
-0.00013211
-0.000129372
-0.000126214
-0.000122633
-0.000118625
-0.000114184
-0.000109305
-0.000103984
-9.82136e-05
-9.19879e-05
-8.52996e-05
-7.81415e-05
-7.05055e-05
-6.23831e-05
-5.37655e-05
-4.46433e-05
-3.50067e-05
-2.48454e-05
-1.41488e-05
-2.90575e-06
8.89541e-06
2.12667e-05
3.42207e-05
4.77703e-05
6.19291e-05
7.67109e-05
9.21298e-05
0.0001082
0.000124938
0.000142356
0.000160472
0.000179301
0.000198857
0.000219158
0.000240218
0.000262055
0.000284683
0.000308117
0.000332372
0.000357464
0.000383405
0.000410208
0.000437885
0.000466448
0.000495905
0.000526266
0.000557535
0.000589718
0.000622817
0.000656829
0.000691753
0.000727582
0.000764307
-0.000151387
-0.000151878
-0.000151483
-0.000150865
-0.000149803
-0.000148343
-0.000146481
-0.000144213
-0.000141537
-0.000138448
-0.000134944
-0.000131019
-0.00012667
-0.00012189
-0.000116675
-0.000111017
-0.00010491
-9.83481e-05
-9.13221e-05
-8.38242e-05
-7.58456e-05
-6.73771e-05
-5.84091e-05
-4.89313e-05
-3.89332e-05
-2.84036e-05
-1.7331e-05
-5.70308e-06
6.49267e-06
1.92695e-05
3.26411e-05
4.66218e-05
6.12261e-05
7.64692e-05
9.23666e-05
0.000108934
0.000126188
0.000144145
0.000162823
0.000182237
0.000202407
0.000223348
0.00024508
0.000267619
0.000290984
0.000315191
0.000340257
0.000366198
0.000393031
0.000420771
0.000449432
0.000479027
0.000509568
0.000541066
0.000573527
0.00060696
0.000641367
0.000676749
0.000713106
0.000750433
-0.000163713
-0.000164213
-0.000163834
-0.000163241
-0.000162211
-0.000160791
-0.000158978
-0.000156767
-0.000154156
-0.000151141
-0.000147717
-0.000143882
-0.000139629
-0.000134954
-0.00012985
-0.000124311
-0.000118331
-0.000111902
-0.000105016
-9.7665e-05
-8.98391e-05
-8.15292e-05
-7.27252e-05
-6.34168e-05
-5.35928e-05
-4.32418e-05
-3.23515e-05
-2.09094e-05
-8.9021e-06
3.68418e-06
1.68639e-05
3.0652e-05
4.50641e-05
6.01161e-05
7.58246e-05
9.22065e-05
0.000109279
0.000127061
0.00014557
0.000164826
0.000184846
0.000205652
0.000227262
0.000249695
0.000272973
0.000297113
0.000322137
0.000348064
0.000374911
0.000402699
0.000431444
0.000461165
0.000491876
0.000523591
0.000556324
0.000590084
0.000624882
0.000660722
0.000697608
0.000735541
-0.000176473
-0.000176981
-0.000176618
-0.000176051
-0.000175055
-0.000173678
-0.000171917
-0.000169766
-0.000167223
-0.000164285
-0.000160947
-0.000157205
-0.000153054
-0.000148489
-0.000143503
-0.000138091
-0.000132244
-0.000125956
-0.000119219
-0.000112023
-0.000104359
-9.6217e-05
-8.75875e-05
-7.84593e-05
-6.88209e-05
-5.86603e-05
-4.7965e-05
-3.67217e-05
-2.49166e-05
-1.2535e-05
4.38107e-07
1.40185e-05
2.82225e-05
4.30671e-05
5.85698e-05
7.47487e-05
9.16227e-05
0.000109211
0.000127533
0.000146611
0.000166463
0.000187113
0.000208581
0.000230889
0.000254059
0.000278114
0.000303076
0.000328968
0.000355811
0.000383629
0.000412441
0.00044227
0.000473135
0.000505054
0.000538045
0.000572123
0.000607302
0.000643593
0.000681005
0.000719544
-0.000189656
-0.000190173
-0.000189828
-0.000189287
-0.000188328
-0.000186996
-0.000185288
-0.0001832
-0.00018073
-0.000177872
-0.000174624
-0.000170981
-0.000166938
-0.000162488
-0.000157627
-0.000152348
-0.000146643
-0.000140504
-0.000133923
-0.000126891
-0.000119398
-0.000111435
-0.000102991
-9.40543e-05
-8.46134e-05
-7.46559e-05
-6.41686e-05
-5.31378e-05
-4.15491e-05
-2.93872e-05
-1.66363e-05
-3.27983e-06
1.06993e-05
2.5319e-05
4.05979e-05
5.65552e-05
7.3211e-05
9.05859e-05
0.000108701
0.00012758
0.000147243
0.000167715
0.000189018
0.000211178
0.000234219
0.000258166
0.000283043
0.000308878
0.000335695
0.000363519
0.000392378
0.000422294
0.000453292
0.000485396
0.000518627
0.000553006
0.000588552
0.000625282
0.000663211
0.00070235
-0.000203255
-0.000203782
-0.000203454
-0.000202942
-0.00020202
-0.000200735
-0.000199084
-0.000197062
-0.000194667
-0.000191895
-0.000188742
-0.000185202
-0.000181272
-0.000176945
-0.000172215
-0.000167075
-0.000161519
-0.000155537
-0.000149122
-0.000142263
-0.000134952
-0.000127178
-0.00011893
-0.000110197
-0.000100966
-9.12243e-05
-8.09587e-05
-7.01548e-05
-5.87975e-05
-4.68709e-05
-3.43586e-05
-2.12433e-05
-7.50687e-06
6.8694e-06
2.19052e-05
3.76209e-05
5.40378e-05
7.11781e-05
8.90646e-05
0.000107721
0.000127172
0.000147442
0.000168557
0.000190544
0.000213429
0.000237241
0.000262008
0.000287759
0.000314523
0.000342329
0.000371207
0.000401185
0.000432292
0.000464556
0.000498004
0.000532662
0.000568556
0.000605707
0.000644137
0.000683863
-0.000217261
-0.000217798
-0.000217489
-0.000217006
-0.000216123
-0.000214887
-0.000213296
-0.000211343
-0.000209028
-0.000206345
-0.00020329
-0.00019986
-0.000196048
-0.00019185
-0.000187258
-0.000182265
-0.000176865
-0.000171049
-0.000164808
-0.000158133
-0.000151013
-0.000143439
-0.000135399
-0.000126881
-0.000117873
-0.000108361
-9.83312e-05
-8.77691e-05
-7.66589e-05
-6.49841e-05
-5.27277e-05
-3.98715e-05
-2.63967e-05
-1.22835e-05
2.48864e-06
1.79414e-05
3.40974e-05
5.098e-05
6.86137e-05
8.70237e-05
0.000106236
0.000126278
0.000147178
0.000168964
0.000191666
0.000215314
0.000239942
0.000265579
0.00029226
0.000320017
0.000348883
0.000378892
0.000410077
0.000442472
0.000476108
0.000511018
0.000547233
0.000584782
0.000623691
0.000663986
-0.000231664
-0.000232211
-0.000231922
-0.000231469
-0.000230627
-0.000229443
-0.000227914
-0.000226034
-0.000223801
-0.000221212
-0.000218262
-0.000214945
-0.000211258
-0.000207194
-0.000202747
-0.000197909
-0.000192673
-0.000187031
-0.000180974
-0.000174491
-0.000167574
-0.000160211
-0.00015239
-0.000144101
-0.000135328
-0.00012606
-0.000116281
-0.000105976
-9.51297e-05
-8.3724e-05
-7.17414e-05
-5.91633e-05
-4.597e-05
-3.21407e-05
-1.76539e-05
-2.48662e-06
1.33848e-05
2.99851e-05
4.73404e-05
6.54773e-05
8.4424e-05
0.000104209
0.000124864
0.000146418
0.000168905
0.000192359
0.000216813
0.000242303
0.000268867
0.000296539
0.000325359
0.000355364
0.000386591
0.000419081
0.000452871
0.000487999
0.000524503
0.000562418
0.000601777
0.000642614
-0.000246455
-0.000247012
-0.000246743
-0.000246323
-0.000245523
-0.000244393
-0.000242928
-0.000241124
-0.000238978
-0.000236487
-0.000233645
-0.000230449
-0.000226892
-0.000222969
-0.000218673
-0.000213998
-0.000208934
-0.000203475
-0.000197611
-0.000191331
-0.000184627
-0.000177486
-0.000169897
-0.000161849
-0.000153326
-0.000144316
-0.000134803
-0.000124772
-0.000114205
-0.000103087
-9.13969e-05
-7.91168e-05
-6.62258e-05
-5.27022e-05
-3.85236e-05
-2.36658e-05
-8.1041e-06
8.1878e-06
2.52372e-05
4.30725e-05
6.17236e-05
8.12214e-05
0.000101598
0.000122888
0.000145126
0.000168349
0.000192593
0.000217899
0.000244306
0.000271855
0.000300588
0.000330547
0.000361777
0.000394321
0.000428223
0.000463529
0.000500281
0.000538523
0.000578296
0.000619639
-0.000261622
-0.00026219
-0.000261942
-0.000261555
-0.0002608
-0.000259726
-0.000258329
-0.000256604
-0.000254549
-0.000252159
-0.000249431
-0.00024636
-0.000242939
-0.000239164
-0.000235027
-0.000230521
-0.000225639
-0.000220371
-0.000214709
-0.000208643
-0.000202163
-0.000195256
-0.000187912
-0.000180117
-0.000171858
-0.000163121
-0.00015389
-0.000144149
-0.000133881
-0.000123068
-0.00011169
-9.97288e-05
-8.71619e-05
-7.3967e-05
-6.01206e-05
-4.55977e-05
-3.03721e-05
-1.44165e-05
2.29785e-06
1.98011e-05
3.81247e-05
5.73017e-05
7.73667e-05
9.8356e-05
0.000120307
0.00014326
0.000167255
0.000192335
0.000218542
0.000245923
0.000274524
0.000304392
0.000335576
0.000368126
0.000402094
0.000437529
0.000474483
0.000513005
0.000553146
0.000594953
-0.000277156
-0.000277734
-0.000277509
-0.000277156
-0.000276447
-0.000275431
-0.000274105
-0.000272462
-0.000270502
-0.000268219
-0.000265609
-0.000262668
-0.00025939
-0.000255769
-0.000251798
-0.000247469
-0.000242776
-0.00023771
-0.00023226
-0.000226418
-0.000220172
-0.000213512
-0.000206424
-0.000198897
-0.000190917
-0.000182468
-0.000173535
-0.000164101
-0.000154149
-0.000143661
-0.000132617
-0.000120995
-0.000108775
-9.59329e-05
-8.24439e-05
-6.82823e-05
-5.34209e-05
-3.7831e-05
-2.14825e-05
-4.34386e-06
1.36183e-05
3.2439e-05
5.2155e-05
7.28049e-05
9.44293e-05
0.00011707
0.000140771
0.000165579
0.00019154
0.000218704
0.000247122
0.000276846
0.000307932
0.000340435
0.000374412
0.000409921
0.000447021
0.000485769
0.000526223
0.00056844
-0.000293045
-0.000293634
-0.000293431
-0.000293115
-0.000292454
-0.000291498
-0.000290245
-0.000288688
-0.000286826
-0.000284654
-0.000282167
-0.000279362
-0.000276232
-0.000272772
-0.000268974
-0.000264831
-0.000260336
-0.000255479
-0.000250252
-0.000244644
-0.000238645
-0.000232243
-0.000225426
-0.00021818
-0.000210492
-0.000202347
-0.000193729
-0.00018462
-0.000175004
-0.00016486
-0.00015417
-0.000142911
-0.000131061
-0.000118596
-0.000105491
-9.17186e-05
-7.72506e-05
-6.20573e-05
-4.61073e-05
-2.93674e-05
-1.18027e-05
6.6239e-06
2.59512e-05
4.62202e-05
6.74739e-05
8.97571e-05
0.000113117
0.000137602
0.000163265
0.000190158
0.000218337
0.000247861
0.000278789
0.000311183
0.000345108
0.000380628
0.000417809
0.000456717
0.00049742
0.000539985
-0.000309276
-0.000309877
-0.000309698
-0.000309419
-0.000308807
-0.000307915
-0.000306737
-0.00030527
-0.000303509
-0.000301453
-0.000299095
-0.000296431
-0.000293455
-0.000290162
-0.000286545
-0.000282595
-0.000278306
-0.000273669
-0.000268674
-0.000263311
-0.00025757
-0.000251439
-0.000244905
-0.000237955
-0.000230575
-0.000222749
-0.000214463
-0.000205698
-0.000196435
-0.000186657
-0.000176343
-0.000165469
-0.000154014
-0.000141953
-0.000129258
-0.000115904
-0.00010186
-8.70955e-05
-7.15781e-05
-5.5273e-05
-3.81436e-05
-2.01512e-05
-1.25465e-06
1.8589e-05
3.94253e-05
6.13018e-05
8.42685e-05
0.000108378
0.000133685
0.000160249
0.000188128
0.000217387
0.000248092
0.00028031
0.000314112
0.00034957
0.000386759
0.000425754
0.000466631
0.000509468
-0.000325839
-0.000326452
-0.000326297
-0.000326056
-0.000325496
-0.000324668
-0.00032357
-0.000322194
-0.00032054
-0.000318603
-0.000316378
-0.000313861
-0.000311046
-0.000307927
-0.000304497
-0.000300749
-0.000296675
-0.000292267
-0.000287514
-0.000282407
-0.000276935
-0.000271087
-0.00026485
-0.00025821
-0.000251153
-0.000243664
-0.000235726
-0.000227323
-0.000218435
-0.000209043
-0.000199126
-0.000188662
-0.000177627
-0.000165995
-0.00015374
-0.000140833
-0.000127245
-0.000112944
-9.78945e-05
-8.2062e-05
-6.54078e-05
-4.78916e-05
-2.94704e-05
-1.00991e-05
1.027e-05
3.16873e-05
5.42057e-05
7.78811e-05
0.000102772
0.000128942
0.000156455
0.00018538
0.000215788
0.000247754
0.000281355
0.000316672
0.000353785
0.000392781
0.000433747
0.000476769
-0.000342719
-0.000343344
-0.000343215
-0.000343014
-0.000342507
-0.000341747
-0.000340729
-0.00033945
-0.000337905
-0.000336092
-0.000334005
-0.000331641
-0.000328992
-0.000326054
-0.000322819
-0.00031928
-0.00031543
-0.000311259
-0.000306759
-0.000301919
-0.000296729
-0.000291176
-0.000285249
-0.000278933
-0.000272215
-0.000265079
-0.000257508
-0.000249485
-0.000240991
-0.000232007
-0.000222511
-0.00021248
-0.00020189
-0.000190715
-0.000178929
-0.000166501
-0.000153402
-0.000139598
-0.000125054
-0.000109733
-9.3596e-05
-7.66003e-05
-5.87014e-05
-3.98522e-05
-2.00029e-05
8.9938e-07
2.29105e-05
4.60898e-05
7.04998e-05
9.62069e-05
0.000123281
0.000151796
0.000181828
0.000213459
0.000246773
0.000281857
0.000318803
0.000357704
0.00039866
0.000441769
-0.000359905
-0.000360543
-0.000360439
-0.000360279
-0.000359827
-0.000359136
-0.000358203
-0.000357023
-0.000355592
-0.000353906
-0.000351963
-0.000349756
-0.00034728
-0.000344529
-0.000341496
-0.000338174
-0.000334556
-0.000330633
-0.000326395
-0.000321833
-0.000316936
-0.000311692
-0.000306088
-0.000300111
-0.000293747
-0.00028698
-0.000279794
-0.000272171
-0.000264092
-0.000255537
-0.000246484
-0.000236911
-0.000226793
-0.000216104
-0.000204816
-0.000192899
-0.000180322
-0.000167052
-0.000153052
-0.000138284
-0.000122707
-0.000106278
-8.89501e-05
-7.06753e-05
-5.14013e-05
-3.10729e-05
-9.63132e-06
1.29857e-05
3.68445e-05
6.20155e-05
8.85729e-05