/*--------------------------------*- C++ -*----------------------------------*\
  =========                 |
  \\      /  F ield         | OpenFOAM: The Open Source CFD Toolbox
   \\    /   O peration     | Website:  https://openfoam.org
    \\  /    A nd           | Version:  8
     \\/     M anipulation  |
\*---------------------------------------------------------------------------*/
FoamFile
{
    version     2.0;
    format      ascii;
    class       volVectorField;
    location    "28";
    object      U;
}
// * * * * * * * * * * * * * * * * * * * * * * * * * * * * * * * * * * * * * //

dimensions      [0 1 -1 0 0 0 0];

internalField   nonuniform List<vector> 
11600
(
(-3.18912e-06 3.12313e-06 0)
(-3.47836e-05 1.25118e-05 0)
(-8.91733e-05 1.59777e-05 0)
(-0.000144017 1.69047e-05 0)
(-0.000201598 1.69265e-05 0)
(-0.000258949 1.68164e-05 0)
(-0.000316178 1.67586e-05 0)
(-0.000373353 1.67459e-05 0)
(-0.000430489 1.67577e-05 0)
(-0.000487596 1.6782e-05 0)
(-0.000544679 1.68132e-05 0)
(-0.000601738 1.68484e-05 0)
(-0.000658766 1.68866e-05 0)
(-0.000715761 1.69269e-05 0)
(-0.000772713 1.69689e-05 0)
(-0.000829617 1.70122e-05 0)
(-0.000886463 1.70564e-05 0)
(-0.000943242 1.71012e-05 0)
(-0.000999945 1.71461e-05 0)
(-0.00105656 1.71908e-05 0)
(-0.00111308 1.72349e-05 0)
(-0.00116948 1.72779e-05 0)
(-0.00122576 1.73194e-05 0)
(-0.00128189 1.73589e-05 0)
(-0.00133787 1.7396e-05 0)
(-0.00139368 1.74302e-05 0)
(-0.0014493 1.7461e-05 0)
(-0.0015047 1.74879e-05 0)
(-0.00155988 1.75106e-05 0)
(-0.00161482 1.75286e-05 0)
(-0.00166948 1.75415e-05 0)
(-0.00172386 1.7549e-05 0)
(-0.00177793 1.75508e-05 0)
(-0.00183167 1.75469e-05 0)
(-0.00188506 1.75371e-05 0)
(-0.00193808 1.75217e-05 0)
(-0.00199072 1.75011e-05 0)
(-0.00204297 1.74759e-05 0)
(-0.00209481 1.74472e-05 0)
(-0.00214624 1.74165e-05 0)
(-0.00219728 1.7386e-05 0)
(-0.00224792 1.73586e-05 0)
(-0.00229821 1.73382e-05 0)
(-0.00234818 1.73301e-05 0)
(-0.00239792 1.7341e-05 0)
(-0.00244751 1.73798e-05 0)
(-0.00249712 1.74575e-05 0)
(-0.00254694 1.75879e-05 0)
(-0.00259725 1.77866e-05 0)
(-0.00264844 1.80692e-05 0)
(-0.00270104 1.84444e-05 0)
(-0.00275579 1.88999e-05 0)
(-0.00281369 1.93736e-05 0)
(-0.00287625 1.97061e-05 0)
(-0.00294633 1.97182e-05 0)
(-0.00302664 2.04177e-05 0)
(-0.00311036 2.80169e-05 0)
(-0.00332898 5.91487e-05 0)
(-0.00339774 0.000317111 0)
(-0.00460834 0.00108903 0)
(-1.28072e-05 3.48879e-05 0)
(-7.75311e-05 7.68919e-05 0)
(-0.000178277 9.32645e-05 0)
(-0.000280532 9.84797e-05 0)
(-0.000387551 9.95703e-05 0)
(-0.000494707 9.9628e-05 0)
(-0.000601829 9.95373e-05 0)
(-0.00070888 9.94504e-05 0)
(-0.000815794 9.93746e-05 0)
(-0.000922535 9.93003e-05 0)
(-0.00102908 9.922e-05 0)
(-0.0011354 9.91294e-05 0)
(-0.00124148 9.90259e-05 0)
(-0.00134727 9.89077e-05 0)
(-0.00145277 9.87733e-05 0)
(-0.00155792 9.86213e-05 0)
(-0.00166271 9.84505e-05 0)
(-0.0017671 9.82595e-05 0)
(-0.00187106 9.80468e-05 0)
(-0.00197456 9.78112e-05 0)
(-0.00207756 9.75512e-05 0)
(-0.00218002 9.72653e-05 0)
(-0.0022819 9.6952e-05 0)
(-0.00238318 9.66098e-05 0)
(-0.00248381 9.62374e-05 0)
(-0.00258375 9.58333e-05 0)
(-0.00268295 9.53962e-05 0)
(-0.00278139 9.49249e-05 0)
(-0.00287901 9.44184e-05 0)
(-0.00297578 9.38759e-05 0)
(-0.00307164 9.3297e-05 0)
(-0.00316657 9.26817e-05 0)
(-0.00326052 9.20305e-05 0)
(-0.00335345 9.13446e-05 0)
(-0.00344532 9.06263e-05 0)
(-0.00353611 8.98788e-05 0)
(-0.00362579 8.91069e-05 0)
(-0.00371433 8.83174e-05 0)
(-0.00380173 8.75192e-05 0)
(-0.00388799 8.67246e-05 0)
(-0.00397312 8.59497e-05 0)
(-0.00405717 8.52161e-05 0)
(-0.0041402 8.45521e-05 0)
(-0.00422231 8.39953e-05 0)
(-0.00430365 8.35955e-05 0)
(-0.00438444 8.34198e-05 0)
(-0.00446497 8.35586e-05 0)
(-0.00454565 8.4136e-05 0)
(-0.00462707 8.53244e-05 0)
(-0.00471002 8.73678e-05 0)
(-0.00479566 9.06191e-05 0)
(-0.00488564 9.5604e-05 0)
(-0.00498241 0.000103138 0)
(-0.00508988 0.000114581 0)
(-0.00521433 0.000132666 0)
(-0.00536339 0.00016439 0)
(-0.00555167 0.000226385 0)
(-0.00585288 0.000352337 0)
(-0.0061027 0.000763324 0)
(-0.00683087 0.00137937 0)
(-1.64993e-05 9.00651e-05 0)
(-9.47761e-05 0.000178012 0)
(-0.000214506 0.000212611 0)
(-0.000335499 0.000223914 0)
(-0.000461738 0.000226717 0)
(-0.000588088 0.000227134 0)
(-0.000714358 0.000227004 0)
(-0.0008405 0.00022675 0)
(-0.000966425 0.00022645 0)
(-0.00109209 0.00022611 0)
(-0.00121744 0.000225726 0)
(-0.00134246 0.000225295 0)
(-0.00146709 0.000224813 0)
(-0.0015913 0.000224277 0)
(-0.00171504 0.000223684 0)
(-0.00183828 0.000223034 0)
(-0.00196097 0.000222322 0)
(-0.00208306 0.000221547 0)
(-0.00220452 0.000220707 0)
(-0.0023253 0.000219799 0)
(-0.00244534 0.00021882 0)
(-0.00256461 0.000217768 0)
(-0.00268306 0.000216641 0)
(-0.00280063 0.000215436 0)
(-0.00291727 0.000214151 0)
(-0.00303294 0.000212783 0)
(-0.00314758 0.000211331 0)
(-0.00326114 0.000209794 0)
(-0.00337358 0.00020817 0)
(-0.00348483 0.000206458 0)
(-0.00359485 0.000204659 0)
(-0.00370359 0.000202774 0)
(-0.00381099 0.000200807 0)
(-0.00391702 0.00019876 0)
(-0.00402163 0.000196641 0)
(-0.00412479 0.000194458 0)
(-0.00422645 0.000192224 0)
(-0.0043266 0.000189956 0)
(-0.00442523 0.000187675 0)
(-0.00452234 0.000185411 0)
(-0.00461794 0.000183202 0)
(-0.00471208 0.000181098 0)
(-0.00480484 0.000179165 0)
(-0.00489632 0.000177488 0)
(-0.00498669 0.000176184 0)
(-0.00507617 0.000175405 0)
(-0.00516509 0.000175358 0)
(-0.00525388 0.000176327 0)
(-0.00534312 0.000178709 0)
(-0.00543364 0.000183069 0)
(-0.00552654 0.000190233 0)
(-0.00562334 0.000201451 0)
(-0.00572616 0.000218676 0)
(-0.0058381 0.000245135 0)
(-0.00596337 0.000286664 0)
(-0.00610671 0.00035455 0)
(-0.00627684 0.000469349 0)
(-0.00649318 0.000673865 0)
(-0.00664656 0.00109203 0)
(-0.00692421 0.00166037 0)
(-1.75483e-05 0.000146147 0)
(-0.000100545 0.000281306 0)
(-0.000226938 0.000333956 0)
(-0.000354098 0.000350872 0)
(-0.000486626 0.000355089 0)
(-0.000619189 0.00035572 0)
(-0.000751644 0.000355482 0)
(-0.000883955 0.000355021 0)
(-0.00101603 0.000354459 0)
(-0.0011478 0.000353813 0)
(-0.00127923 0.000353081 0)
(-0.00141028 0.000352259 0)
(-0.00154089 0.000351343 0)
(-0.00167102 0.000350329 0)
(-0.00180062 0.000349216 0)
(-0.00192965 0.000347998 0)
(-0.00205807 0.000346675 0)
(-0.00218581 0.000345241 0)
(-0.00231284 0.000343695 0)
(-0.0024391 0.000342032 0)
(-0.00256454 0.00034025 0)
(-0.00268912 0.000338344 0)
(-0.00281277 0.000336313 0)
(-0.00293545 0.000334153 0)
(-0.00305709 0.00033186 0)
(-0.00317766 0.000329432 0)
(-0.00329708 0.000326867 0)
(-0.00341531 0.000324163 0)
(-0.00353229 0.000321319 0)
(-0.00364797 0.000318335 0)
(-0.00376229 0.000315212 0)
(-0.00387519 0.000311953 0)
(-0.00398663 0.000308562 0)
(-0.00409655 0.000305047 0)
(-0.00420491 0.000301418 0)
(-0.00431167 0.00029769 0)
(-0.00441678 0.000293881 0)
(-0.00452023 0.000290019 0)
(-0.00462199 0.000286136 0)
(-0.00472206 0.000282277 0)
(-0.00482045 0.000278502 0)
(-0.00491719 0.000274884 0)
(-0.00501233 0.000271523 0)
(-0.00510599 0.000268546 0)
(-0.00519828 0.000266124 0)
(-0.00528941 0.000264481 0)
(-0.00537964 0.000263915 0)
(-0.00546933 0.000264833 0)
(-0.00555897 0.00026779 0)
(-0.00564921 0.000273561 0)
(-0.00574088 0.000283247 0)
(-0.0058351 0.000298442 0)
(-0.00593329 0.00032152 0)
(-0.00603724 0.000356126 0)
(-0.00614878 0.000408152 0)
(-0.00626904 0.000487293 0)
(-0.00639846 0.000609074 0)
(-0.00652926 0.000801931 0)
(-0.00660043 0.00111925 0)
(-0.00663806 0.0015061 0)
(-1.76026e-05 0.000205167 0)
(-0.000101908 0.000389714 0)
(-0.000230407 0.000460941 0)
(-0.00035938 0.000483592 0)
(-0.000493777 0.000489262 0)
(-0.00062814 0.000490123 0)
(-0.000762372 0.000489783 0)
(-0.000896449 0.000489107 0)
(-0.00103028 0.000488268 0)
(-0.0011638 0.000487294 0)
(-0.00129697 0.000486184 0)
(-0.00142974 0.000484937 0)
(-0.00156206 0.000483549 0)
(-0.00169388 0.000482017 0)
(-0.00182517 0.000480336 0)
(-0.00195587 0.000478503 0)
(-0.00208592 0.000476514 0)
(-0.00221529 0.000474366 0)
(-0.00234392 0.000472054 0)
(-0.00247176 0.000469573 0)
(-0.00259875 0.000466921 0)
(-0.00272485 0.000464093 0)
(-0.00285001 0.000461084 0)
(-0.00297415 0.000457892 0)
(-0.00309725 0.000454511 0)
(-0.00321922 0.00045094 0)
(-0.00334003 0.000447175 0)
(-0.0034596 0.000443214 0)
(-0.00357789 0.000439056 0)
(-0.00369484 0.000434701 0)
(-0.00381039 0.000430152 0)
(-0.00392448 0.000425412 0)
(-0.00403706 0.000420488 0)
(-0.00414808 0.000415389 0)
(-0.00425748 0.000410129 0)
(-0.00436522 0.000404728 0)
(-0.00447125 0.000399212 0)
(-0.00457554 0.000393613 0)
(-0.00467806 0.000387978 0)
(-0.00477879 0.000382364 0)
(-0.00487773 0.000376846 0)
(-0.00497488 0.000371521 0)
(-0.00507029 0.000366515 0)
(-0.005164 0.000361992 0)
(-0.0052561 0.000358164 0)
(-0.00534672 0.000355311 0)
(-0.00543604 0.000353803 0)
(-0.00552428 0.000354133 0)
(-0.00561174 0.000356965 0)
(-0.00569877 0.000363208 0)
(-0.00578582 0.000374118 0)
(-0.00587334 0.000391455 0)
(-0.0059618 0.000417726 0)
(-0.00605144 0.000456549 0)
(-0.00614185 0.000513224 0)
(-0.00623113 0.000595394 0)
(-0.00631469 0.000713746 0)
(-0.00637901 0.000883962 0)
(-0.00638961 0.00112215 0)
(-0.00633447 0.00139954 0)
(-1.74759e-05 0.000264048 0)
(-0.000102096 0.000498537 0)
(-0.000231279 0.000588407 0)
(-0.000360814 0.000616745 0)
(-0.000495818 0.000623808 0)
(-0.000630744 0.000624859 0)
(-0.000765525 0.000624397 0)
(-0.000900145 0.000623498 0)
(-0.00103451 0.000622378 0)
(-0.00116857 0.000621073 0)
(-0.00130228 0.000619586 0)
(-0.00143558 0.000617914 0)
(-0.00156844 0.000616054 0)
(-0.0017008 0.000614001 0)
(-0.00183262 0.000611752 0)
(-0.00196385 0.000609302 0)
(-0.00209443 0.000606647 0)
(-0.00222433 0.000603782 0)
(-0.00235348 0.000600702 0)
(-0.00248185 0.000597403 0)
(-0.00260936 0.000593879 0)
(-0.00273598 0.000590125 0)
(-0.00286165 0.000586136 0)
(-0.00298631 0.000581909 0)
(-0.00310991 0.000577437 0)
(-0.00323239 0.000572717 0)
(-0.00335369 0.000567746 0)
(-0.00347375 0.000562522 0)
(-0.00359252 0.000557043 0)
(-0.00370994 0.000551308 0)
(-0.00382594 0.000545322 0)
(-0.00394047 0.000539087 0)
(-0.00405348 0.000532611 0)
(-0.00416489 0.000525907 0)
(-0.00427466 0.00051899 0)
(-0.00438274 0.000511883 0)
(-0.00448906 0.000504617 0)
(-0.0045936 0.000497231 0)
(-0.00469629 0.000489778 0)
(-0.00479712 0.000482325 0)
(-0.00489605 0.00047496 0)
(-0.00499306 0.000467794 0)
(-0.00508817 0.000460971 0)
(-0.00518136 0.000454677 0)
(-0.00527268 0.000449151 0)
(-0.00536218 0.000444702 0)
(-0.0054499 0.000441735 0)
(-0.00553595 0.000440776 0)
(-0.0056204 0.000442519 0)
(-0.00570334 0.000447885 0)
(-0.00578482 0.000458098 0)
(-0.00586475 0.000474799 0)
(-0.00594282 0.000500188 0)
(-0.00601823 0.000537214 0)
(-0.00608922 0.000589785 0)
(-0.00615239 0.000662875 0)
(-0.00620151 0.000762461 0)
(-0.00622434 0.000895131 0)
(-0.00620037 0.00106286 0)
(-0.00611299 0.00124927 0)
(-1.73813e-05 0.000322842 0)
(-0.000102096 0.000607547 0)
(-0.000231577 0.000716117 0)
(-0.000361385 0.000750156 0)
(-0.000496701 0.000758599 0)
(-0.000631918 0.000759826 0)
(-0.000766984 0.000759234 0)
(-0.000901884 0.000758109 0)
(-0.00103653 0.000756709 0)
(-0.00117087 0.000755075 0)
(-0.00130486 0.000753211 0)
(-0.00143845 0.000751116 0)
(-0.0015716 0.000748786 0)
(-0.00170425 0.000746215 0)
(-0.00183637 0.000743401 0)
(-0.00196789 0.000740337 0)
(-0.00209878 0.000737018 0)
(-0.00222898 0.000733439 0)
(-0.00235845 0.000729595 0)
(-0.00248712 0.000725479 0)
(-0.00261496 0.000721085 0)
(-0.0027419 0.000716408 0)
(-0.00286789 0.000711442 0)
(-0.00299288 0.000706181 0)
(-0.00311681 0.000700619 0)
(-0.00323962 0.000694752 0)
(-0.00336126 0.000688575 0)
(-0.00348166 0.000682086 0)
(-0.00360076 0.000675282 0)
(-0.00371851 0.000668163 0)
(-0.00383484 0.000660731 0)
(-0.00394969 0.000652991 0)
(-0.00406299 0.00064495 0)
(-0.0041747 0.000636621 0)
(-0.00428473 0.000628021 0)
(-0.00439304 0.000619175 0)
(-0.00449956 0.000610117 0)
(-0.00460424 0.000600888 0)
(-0.00470701 0.000591547 0)
(-0.00480784 0.000582165 0)
(-0.00490665 0.000572836 0)
(-0.00500343 0.000563681 0)
(-0.00509811 0.000554851 0)
(-0.00519067 0.000546542 0)
(-0.00528106 0.000539001 0)
(-0.00536926 0.000532545 0)
(-0.00545523 0.000527578 0)
(-0.0055389 0.000524621 0)
(-0.00562018 0.000524337 0)
(-0.00569892 0.000527582 0)
(-0.00577483 0.00053545 0)
(-0.00584742 0.000549342 0)
(-0.00591588 0.000571026 0)
(-0.0059788 0.000602698 0)
(-0.00603384 0.00064698 0)
(-0.00607725 0.00070676 0)
(-0.00610313 0.000784792 0)
(-0.00610211 0.000882714 0)
(-0.00606144 0.000997694 0)
(-0.00596936 0.00111845 0)
(-1.73228e-05 0.000381604 0)
(-0.000102105 0.000716735 0)
(-0.00023181 0.00084408 0)
(-0.000361855 0.000883853 0)
(-0.000497443 0.000893678 0)
(-0.000632925 0.000895078 0)
(-0.000768253 0.000894353 0)
(-0.000903415 0.000893001 0)
(-0.00103833 0.00089132 0)
(-0.00117293 0.000889359 0)
(-0.00130719 0.000887122 0)
(-0.00144105 0.000884607 0)
(-0.00157447 0.00088181 0)
(-0.0017074 0.000878726 0)
(-0.0018398 0.00087535 0)
(-0.00197161 0.000871676 0)
(-0.0021028 0.000867699 0)
(-0.0022333 0.000863411 0)
(-0.00236307 0.000858807 0)
(-0.00249206 0.000853879 0)
(-0.00262021 0.000848621 0)
(-0.00274748 0.000843025 0)
(-0.0028738 0.000837086 0)
(-0.00299913 0.000830795 0)
(-0.0031234 0.000824147 0)
(-0.00324655 0.000817135 0)
(-0.00336854 0.000809755 0)
(-0.00348929 0.000802001 0)
(-0.00360875 0.000793872 0)
(-0.00372685 0.000785365 0)
(-0.00384353 0.000776482 0)
(-0.00395872 0.000767226 0)
(-0.00407236 0.000757605 0)
(-0.00418438 0.000747632 0)
(-0.00429471 0.000737323 0)
(-0.00440328 0.000726703 0)
(-0.00451003 0.000715806 0)
(-0.00461488 0.000704676 0)
(-0.00471776 0.00069337 0)
(-0.00481861 0.000681962 0)
(-0.00491734 0.000670547 0)
(-0.00501389 0.000659244 0)
(-0.00510817 0.000648208 0)
(-0.0052001 0.000637628 0)
(-0.0052896 0.000627747 0)
(-0.00537654 0.000618868 0)
(-0.00546079 0.000611371 0)
(-0.00554218 0.000605733 0)
(-0.00562045 0.000602549 0)
(-0.00569528 0.000602555 0)
(-0.00576615 0.00060666 0)
(-0.00583231 0.000615961 0)
(-0.00589267 0.000631761 0)
(-0.00594558 0.00065554 0)
(-0.00598861 0.000688857 0)
(-0.00601827 0.000733111 0)
(-0.00602966 0.000789087 0)
(-0.00601611 0.000856104 0)
(-0.00596975 0.000930191 0)
(-0.00588356 0.00100266 0)
(-1.72823e-05 0.000440354 0)
(-0.000102143 0.000826077 0)
(-0.000232083 0.000972276 0)
(-0.000362388 0.00101782 0)
(-0.000498268 0.00102904 0)
(-0.000634042 0.00103061 0)
(-0.000769662 0.00102975 0)
(-0.000905118 0.00102817 0)
(-0.00104032 0.00102621 0)
(-0.00117523 0.00102393 0)
(-0.00130978 0.00102132 0)
(-0.00144395 0.00101839 0)
(-0.00157768 0.00101513 0)
(-0.00171093 0.00101154 0)
(-0.00184365 0.00100761 0)
(-0.00197579 0.00100333 0)
(-0.00210731 0.000998698 0)
(-0.00223815 0.000993708 0)
(-0.00236827 0.00098835 0)
(-0.00249761 0.000982617 0)
(-0.00262613 0.000976502 0)
(-0.00275376 0.000969995 0)
(-0.00288046 0.000963088 0)
(-0.00300617 0.000955775 0)
(-0.00313083 0.000948046 0)
(-0.00325439 0.000939895 0)
(-0.00337678 0.000931314 0)
(-0.00349794 0.000922299 0)
(-0.0036178 0.000912844 0)
(-0.00373631 0.000902948 0)
(-0.0038534 0.000892609 0)
(-0.003969 0.00088183 0)
(-0.00408303 0.000870617 0)
(-0.00419543 0.000858981 0)
(-0.00430612 0.000846937 0)
(-0.00441502 0.000834509 0)
(-0.00452206 0.000821728 0)
(-0.00462715 0.000808637 0)
(-0.00473021 0.00079529 0)
(-0.00483114 0.000781759 0)
(-0.00492986 0.000768135 0)
(-0.00502626 0.00075453 0)
(-0.00512022 0.00074109 0)
(-0.00521163 0.000727993 0)
(-0.00530033 0.000715462 0)
(-0.00538615 0.000703772 0)
(-0.00546887 0.00069326 0)
(-0.00554824 0.000684338 0)
(-0.00562388 0.000677507 0)
(-0.00569533 0.000673363 0)
(-0.00576195 0.000672607 0)
(-0.00582286 0.000676041 0)
(-0.00587686 0.000684543 0)
(-0.00592228 0.000699003 0)
(-0.00595687 0.000720196 0)
(-0.00597767 0.000748548 0)
(-0.00598086 0.000783759 0)
(-0.00596183 0.000824213 0)
(-0.00591578 0.000866066 0)
(-0.0058389 0.000902734 0)
(-1.7249e-05 0.00049911 0)
(-0.000102207 0.000935587 0)
(-0.000232408 0.00110073 0)
(-0.00036301 0.00115208 0)
(-0.000499218 0.0011647 0)
(-0.000635322 0.00116645 0)
(-0.000771274 0.00116546 0)
(-0.000907064 0.00116366 0)
(-0.00104261 0.00116142 0)
(-0.00117785 0.00115881 0)
(-0.00131275 0.00115584 0)
(-0.00144727 0.0011525 0)
(-0.00158135 0.00114878 0)
(-0.00171496 0.00114469 0)
(-0.00184805 0.00114021 0)
(-0.00198056 0.00113533 0)
(-0.00211246 0.00113006 0)
(-0.00224369 0.00112437 0)
(-0.00237421 0.00111827 0)
(-0.00250396 0.00111174 0)
(-0.00263289 0.00110477 0)
(-0.00276094 0.00109736 0)
(-0.00288808 0.0010895 0)
(-0.00301423 0.00108117 0)
(-0.00313934 0.00107237 0)
(-0.00326335 0.00106308 0)
(-0.0033862 0.00105331 0)
(-0.00350782 0.00104303 0)
(-0.00362816 0.00103226 0)
(-0.00374715 0.00102097 0)
(-0.00386471 0.00100917 0)
(-0.00398078 0.000996865 0)
(-0.00409528 0.000984049 0)
(-0.00420813 0.000970733 0)
(-0.00431925 0.000956931 0)
(-0.00442857 0.000942662 0)
(-0.00453598 0.000927954 0)
(-0.00464139 0.000912846 0)
(-0.00474472 0.000897386 0)
(-0.00484584 0.00088164 0)
(-0.00494465 0.000865689 0)
(-0.00504101 0.000849637 0)
(-0.00513478 0.000833611 0)
(-0.00522581 0.000817772 0)
(-0.0053139 0.000802312 0)
(-0.00539882 0.000787468 0)
(-0.0054803 0.000773524 0)
(-0.00555801 0.000760817 0)
(-0.00563151 0.000749743 0)
(-0.00570026 0.000740753 0)
(-0.00576355 0.000734354 0)
(-0.00582046 0.00073108 0)
(-0.0058698 0.00073146 0)
(-0.00591002 0.000735941 0)
(-0.00593916 0.000744761 0)
(-0.00595481 0.000757766 0)
(-0.00595411 0.000774131 0)
(-0.00593394 0.000791994 0)
(-0.00589137 0.000808027 0)
(-0.00582445 0.000817331 0)
(-1.72173e-05 0.000557886 0)
(-0.000102289 0.00104529 0)
(-0.000232787 0.00122948 0)
(-0.000363722 0.00128668 0)
(-0.000500297 0.00130071 0)
(-0.000636771 0.00130264 0)
(-0.000773096 0.00130152 0)
(-0.000909263 0.0012995 0)
(-0.00104518 0.00129699 0)
(-0.00118081 0.00129406 0)
(-0.0013161 0.00129073 0)
(-0.00145101 0.00128698 0)
(-0.0015855 0.00128282 0)
(-0.00171951 0.00127823 0)
(-0.00185301 0.0012732 0)
(-0.00198595 0.00126774 0)
(-0.00211827 0.00126182 0)
(-0.00224995 0.00125545 0)
(-0.00238091 0.00124861 0)
(-0.00251111 0.00124129 0)
(-0.00264051 0.00123349 0)
(-0.00276905 0.00122518 0)
(-0.00289667 0.00121637 0)
(-0.00302331 0.00120703 0)
(-0.00314893 0.00119717 0)
(-0.00327346 0.00118676 0)
(-0.00339683 0.0011758 0)
(-0.00351899 0.00116427 0)
(-0.00363987 0.00115218 0)
(-0.00375941 0.0011395 0)
(-0.00387752 0.00112625 0)
(-0.00399413 0.00111241 0)
(-0.00410917 0.00109798 0)
(-0.00422256 0.00108297 0)
(-0.0043342 0.00106739 0)
(-0.00444401 0.00105125 0)
(-0.00455188 0.00103458 0)
(-0.00465773 0.0010174 0)
(-0.00476142 0.000999761 0)
(-0.00486285 0.000981716 0)
(-0.00496187 0.000963335 0)
(-0.00505835 0.000944704 0)
(-0.0051521 0.000925932 0)
(-0.00524294 0.000907153 0)
(-0.00533064 0.000888527 0)
(-0.00541495 0.000870244 0)
(-0.00549554 0.000852531 0)
(-0.00557203 0.000835645 0)
(-0.00564395 0.00081988 0)
(-0.00571073 0.000805553 0)
(-0.00577164 0.000792995 0)
(-0.00582577 0.000782523 0)
(-0.00587201 0.000774395 0)
(-0.00590899 0.000768742 0)
(-0.00593506 0.000765463 0)
(-0.00594831 0.000764086 0)
(-0.00594665 0.000763582 0)
(-0.00592796 0.00076216 0)
(-0.00589047 0.000757094 0)
(-0.00583321 0.000744771 0)
(-1.71846e-05 0.000616691 0)
(-0.000102385 0.00115522 0)
(-0.000233214 0.00135855 0)
(-0.000364522 0.00142165 0)
(-0.000501504 0.00143711 0)
(-0.000638388 0.00143922 0)
(-0.000775127 0.00143798 0)
(-0.000911712 0.00143574 0)
(-0.00104806 0.00143296 0)
(-0.00118411 0.00142972 0)
(-0.00131983 0.00142603 0)
(-0.00145518 0.00142189 0)
(-0.00159011 0.00141728 0)
(-0.00172458 0.0014122 0)
(-0.00185854 0.00140664 0)
(-0.00199194 0.00140059 0)
(-0.00212475 0.00139405 0)
(-0.00225691 0.001387 0)
(-0.00238837 0.00137943 0)
(-0.00251908 0.00137134 0)
(-0.002649 0.0013627 0)
(-0.00277806 0.00135351 0)
(-0.00290623 0.00134376 0)
(-0.00303343 0.00133343 0)
(-0.00315961 0.00132251 0)
(-0.00328472 0.00131099 0)
(-0.00340868 0.00129885 0)
(-0.00353144 0.00128608 0)
(-0.00365293 0.00127267 0)
(-0.00377308 0.00125862 0)
(-0.00389181 0.00124391 0)
(-0.00400905 0.00122853 0)
(-0.00412472 0.00121249 0)
(-0.00423872 0.00119577 0)
(-0.00435098 0.0011784 0)
(-0.00446138 0.00116037 0)
(-0.00456983 0.0011417 0)
(-0.00467621 0.00112241 0)
(-0.0047804 0.00110254 0)
(-0.00488227 0.00108212 0)
(-0.00498166 0.00106122 0)
(-0.00507841 0.0010399 0)
(-0.00517234 0.00101825 0)
(-0.00526322 0.00099637 0)
(-0.00535081 0.000974385 0)
(-0.00543482 0.000952439 0)
(-0.0055149 0.000930699 0)
(-0.00559066 0.000909347 0)
(-0.0056616 0.000888581 0)
(-0.00572715 0.0008686 0)
(-0.00578658 0.00084959 0)
(-0.00583906 0.000831694 0)
(-0.00588358 0.000814973 0)
(-0.00591895 0.000799346 0)
(-0.00594382 0.00078451 0)
(-0.00595669 0.000769843 0)
(-0.00595604 0.000754289 0)
(-0.00594043 0.000736257 0)
(-0.00590876 0.000713574 0)
(-0.0058606 0.000683559 0)
(-1.71498e-05 0.000675529 0)
(-0.000102494 0.00126538 0)
(-0.000233688 0.00148799 0)
(-0.000365406 0.00155703 0)
(-0.000502834 0.00157393 0)
(-0.000640169 0.00157624 0)
(-0.000777364 0.00157487 0)
(-0.000914409 0.00157242 0)
(-0.00105122 0.00156938 0)
(-0.00118774 0.00156583 0)
(-0.00132394 0.00156179 0)
(-0.00145977 0.00155725 0)
(-0.00159519 0.00155221 0)
(-0.00173015 0.00154665 0)
(-0.00186461 0.00154056 0)
(-0.00199854 0.00153394 0)
(-0.00213187 0.00152678 0)
(-0.00226456 0.00151907 0)
(-0.00239657 0.00151078 0)
(-0.00252785 0.00150192 0)
(-0.00265834 0.00149247 0)
(-0.00278799 0.00148241 0)
(-0.00291675 0.00147173 0)
(-0.00304456 0.00146042 0)
(-0.00317137 0.00144846 0)
(-0.00329712 0.00143583 0)
(-0.00342174 0.00142253 0)
(-0.00354517 0.00140853 0)
(-0.00366734 0.00139382 0)
(-0.00378817 0.00137839 0)
(-0.00390761 0.00136223 0)
(-0.00402555 0.00134532 0)
(-0.00414193 0.00132766 0)
(-0.00425664 0.00130924 0)
(-0.00436961 0.00129006 0)
(-0.00448071 0.00127012 0)
(-0.00458984 0.00124943 0)
(-0.00469689 0.001228 0)
(-0.00480171 0.00120585 0)
(-0.00490417 0.00118301 0)
(-0.0050041 0.00115952 0)
(-0.00510132 0.00113542 0)
(-0.00519563 0.00111079 0)
(-0.0052868 0.00108568 0)
(-0.00537457 0.00106019 0)
(-0.00545863 0.00103442 0)
(-0.00553863 0.00100847 0)
(-0.00561415 0.000982464 0)
(-0.0056847 0.000956506 0)
(-0.00574972 0.000930698 0)
(-0.00580854 0.00090511 0)
(-0.00586039 0.000879756 0)
(-0.00590436 0.000854556 0)
(-0.00593945 0.000829294 0)
(-0.00596456 0.000803561 0)
(-0.00597854 0.000776684 0)
(-0.00598024 0.000747673 0)
(-0.00596868 0.000715166 0)
(-0.00594317 0.00067744 0)
(-0.00590353 0.000632488 0)
(-1.71121e-05 0.000734405 0)
(-0.000102613 0.00137582 0)
(-0.000234206 0.00161784 0)
(-0.000366371 0.00169286 0)
(-0.000504286 0.00171122 0)
(-0.000642112 0.00171373 0)
(-0.000779803 0.00171225 0)
(-0.000917348 0.00170958 0)
(-0.00105466 0.00170628 0)
(-0.0011917 0.00170243 0)
(-0.00132841 0.00169805 0)
(-0.00146476 0.00169313 0)
(-0.00160072 0.00168765 0)
(-0.00173622 0.00168162 0)
(-0.00187124 0.00167502 0)
(-0.00200572 0.00166784 0)
(-0.00213963 0.00166007 0)
(-0.0022729 0.0016517 0)
(-0.00240551 0.00164271 0)
(-0.0025374 0.0016331 0)
(-0.00266851 0.00162284 0)
(-0.0027988 0.00161193 0)
(-0.00292822 0.00160034 0)
(-0.0030567 0.00158806 0)
(-0.0031842 0.00157507 0)
(-0.00331065 0.00156135 0)
(-0.00343599 0.0015469 0)
(-0.00356015 0.00153168 0)
(-0.00368307 0.00151569 0)
(-0.00380467 0.0014989 0)
(-0.00392488 0.00148129 0)
(-0.00404362 0.00146286 0)
(-0.0041608 0.00144359 0)
(-0.00427632 0.00142347 0)
(-0.0043901 0.00140248 0)
(-0.00450201 0.00138062 0)
(-0.00461195 0.0013579 0)
(-0.00471979 0.0013343 0)
(-0.00482539 0.00130985 0)
(-0.0049286 0.00128454 0)
(-0.00502925 0.00125841 0)
(-0.00512714 0.00123148 0)
(-0.00522208 0.00120379 0)
(-0.00531381 0.00117537 0)
(-0.00540207 0.00114629 0)
(-0.00548654 0.00111658 0)
(-0.00556686 0.00108631 0)
(-0.00564263 0.00105554 0)
(-0.00571337 0.00102429 0)
(-0.00577854 0.0009926 0)
(-0.00583753 0.000960437 0)
(-0.00588962 0.00092772 0)
(-0.00593404 0.000894278 0)
(-0.00596995 0.000859815 0)
(-0.00599643 0.000823874 0)
(-0.00601258 0.000785793 0)
(-0.00601756 0.000744677 0)
(-0.00601066 0.000699383 0)
(-0.00599144 0.000648538 0)
(-0.00595983 0.000590625 0)
(-1.70712e-05 0.000793322 0)
(-0.000102742 0.00148655 0)
(-0.000234766 0.00174812 0)
(-0.000367414 0.00182918 0)
(-0.000505856 0.00184902 0)
(-0.000644213 0.00185173 0)
(-0.000782439 0.00185014 0)
(-0.000920524 0.00184727 0)
(-0.00105838 0.00184371 0)
(-0.00119597 0.00183957 0)
(-0.00133324 0.00183485 0)
(-0.00147017 0.00182955 0)
(-0.00160669 0.00182366 0)
(-0.00174278 0.00181716 0)
(-0.0018784 0.00181005 0)
(-0.00201349 0.00180232 0)
(-0.00214801 0.00179396 0)
(-0.00228192 0.00178494 0)
(-0.00241517 0.00177527 0)
(-0.00254772 0.00176492 0)
(-0.00267951 0.00175387 0)
(-0.00281049 0.00174211 0)
(-0.00294062 0.00172963 0)
(-0.00306983 0.0017164 0)
(-0.00319808 0.0017024 0)
(-0.00332529 0.00168762 0)
(-0.00345141 0.00167203 0)
(-0.00357638 0.00165561 0)
(-0.00370012 0.00163835 0)
(-0.00382257 0.00162021 0)
(-0.00394364 0.00160118 0)
(-0.00406325 0.00158125 0)
(-0.00418132 0.00156037 0)
(-0.00429776 0.00153855 0)
(-0.00441245 0.00151577 0)
(-0.00452529 0.001492 0)
(-0.00463616 0.00146723 0)
(-0.00474494 0.00144147 0)
(-0.00485147 0.00141469 0)
(-0.0049556 0.0013869 0)
(-0.00505716 0.00135811 0)
(-0.00515594 0.0013283 0)
(-0.00525174 0.00129751 0)
(-0.00534431 0.00126573 0)
(-0.00543337 0.00123299 0)
(-0.0055186 0.0011993 0)
(-0.00559967 0.00116467 0)
(-0.00567617 0.00112909 0)
(-0.00574764 0.00109255 0)
(-0.00581358 0.001055 0)
(-0.00587343 0.00101635 0)
(-0.00592655 0.000976458 0)
(-0.00597226 0.000935084 0)
(-0.00600986 0.000891893 0)
(-0.00603859 0.000846415 0)
(-0.00605773 0.000798028 0)
(-0.00606665 0.000745939 0)
(-0.00606482 0.000689192 0)
(-0.00605193 0.00062669 0)
(-0.00602796 0.000557267 0)
(-1.70267e-05 0.000852284 0)
(-0.000102879 0.0015976 0)
(-0.000235366 0.00187886 0)
(-0.000368533 0.00196603 0)
(-0.00050754 0.00198736 0)
(-0.000646466 0.00199028 0)
(-0.000785267 0.00198858 0)
(-0.000923933 0.00198551 0)
(-0.00106238 0.00198171 0)
(-0.00120056 0.00197728 0)
(-0.00133843 0.00197224 0)
(-0.00147596 0.00196657 0)
(-0.00161311 0.00196026 0)
(-0.00174983 0.00195331 0)
(-0.00188608 0.00194571 0)
(-0.00202182 0.00193744 0)
(-0.002157 0.0019285 0)
(-0.00229159 0.00191885 0)
(-0.00242554 0.0019085 0)
(-0.00255879 0.00189743 0)
(-0.00269131 0.00188561 0)
(-0.00282304 0.00187303 0)
(-0.00295393 0.00185967 0)
(-0.00308393 0.00184551 0)
(-0.00321298 0.00183052 0)
(-0.00334102 0.00181469 0)
(-0.003468 0.00179799 0)
(-0.00359384 0.00178039 0)
(-0.00371847 0.00176188 0)
(-0.00384184 0.00174242 0)
(-0.00396385 0.00172199 0)
(-0.00408443 0.00170056 0)
(-0.00420349 0.00167811 0)
(-0.00432093 0.00165461 0)
(-0.00443665 0.00163003 0)
(-0.00455054 0.00160436 0)
(-0.00466248 0.00157757 0)
(-0.00477233 0.00154964 0)
(-0.00487996 0.00152054 0)
(-0.00498519 0.00149027 0)
(-0.00508785 0.0014588 0)
(-0.00518774 0.00142612 0)
(-0.00528465 0.00139221 0)
(-0.00537833 0.00135706 0)
(-0.0054685 0.00132066 0)
(-0.00555486 0.00128297 0)
(-0.00563707 0.00124397 0)
(-0.00571475 0.00120361 0)
(-0.00578746 0.00116183 0)
(-0.00585474 0.00111852 0)
(-0.00591607 0.00107355 0)
(-0.00597089 0.00102672 0)
(-0.00601861 0.00097776 0)
(-0.00605861 0.000926317 0)
(-0.00609029 0.00087193 0)
(-0.00611306 0.000814024 0)
(-0.0061264 0.000751906 0)
(-0.00612991 0.000684773 0)
(-0.00612337 0.000611741 0)
(-0.00610674 0.000531899 0)
(-1.69783e-05 0.000911292 0)
(-0.000103023 0.00170898 0)
(-0.000236003 0.00201012 0)
(-0.000369724 0.00210344 0)
(-0.000509335 0.00212629 0)
(-0.000648869 0.00212943 0)
(-0.000788283 0.00212763 0)
(-0.000927567 0.00212437 0)
(-0.00106664 0.00212032 0)
(-0.00120545 0.00211561 0)
(-0.00134396 0.00211025 0)
(-0.00148214 0.00210421 0)
(-0.00161995 0.00209751 0)
(-0.00175733 0.00209012 0)
(-0.00189427 0.00208204 0)
(-0.0020307 0.00207324 0)
(-0.0021666 0.00206373 0)
(-0.00230191 0.00205347 0)
(-0.0024366 0.00204246 0)
(-0.00257061 0.00203068 0)
(-0.00270391 0.00201811 0)
(-0.00283643 0.00200473 0)
(-0.00296814 0.00199052 0)
(-0.00309898 0.00197544 0)
(-0.00322889 0.00195949 0)
(-0.00335782 0.00194264 0)
(-0.00348571 0.00192485 0)
(-0.00361249 0.0019061 0)
(-0.0037381 0.00188636 0)
(-0.00386246 0.0018656 0)
(-0.0039855 0.00184379 0)
(-0.00410713 0.00182089 0)
(-0.00422728 0.00179689 0)
(-0.00434583 0.00177173 0)
(-0.00446269 0.0017454 0)
(-0.00457775 0.00171785 0)
(-0.00469089 0.00168905 0)
(-0.00480197 0.00165897 0)
(-0.00491084 0.00162757 0)
(-0.00501735 0.00159483 0)
(-0.00512131 0.0015607 0)
(-0.00522253 0.00152516 0)
(-0.0053208 0.00148815 0)
(-0.00541586 0.00144965 0)
(-0.00550746 0.0014096 0)
(-0.00559529 0.00136795 0)
(-0.00567903 0.00132464 0)
(-0.00575831 0.00127957 0)
(-0.00583273 0.00123265 0)
(-0.00590186 0.00118373 0)
(-0.00596523 0.00113264 0)
(-0.00602234 0.00107914 0)
(-0.00607267 0.00102296 0)
(-0.00611569 0.000963729 0)
(-0.00615088 0.000901008 0)
(-0.00617776 0.000834273 0)
(-0.0061959 0.000762915 0)
(-0.00620498 0.000686258 0)
(-0.0062048 0.000603579 0)
(-0.00619532 0.000514152 0)
(-1.69256e-05 0.000970347 0)
(-0.000103173 0.00182072 0)
(-0.000236677 0.0021419 0)
(-0.000370985 0.00224146 0)
(-0.000511236 0.00226584 0)
(-0.000651416 0.00226921 0)
(-0.000791481 0.00226731 0)
(-0.000931422 0.00226386 0)
(-0.00107116 0.00225958 0)
(-0.00121064 0.0022546 0)
(-0.00134983 0.00224892 0)
(-0.0014887 0.00224254 0)
(-0.0016272 0.00223544 0)
(-0.0017653 0.00222762 0)
(-0.00190295 0.00221907 0)
(-0.00204013 0.00220976 0)
(-0.00217677 0.0021997 0)
(-0.00231286 0.00218885 0)
(-0.00244833 0.0021772 0)
(-0.00258315 0.00216473 0)
(-0.00271727 0.00215143 0)
(-0.00285064 0.00213726 0)
(-0.00298322 0.00212222 0)
(-0.00311495 0.00210626 0)
(-0.00324579 0.00208937 0)
(-0.00337567 0.00207151 0)
(-0.00350454 0.00205266 0)
(-0.00363233 0.00203278 0)
(-0.00375897 0.00201185 0)
(-0.00388441 0.00198982 0)
(-0.00400855 0.00196667 0)
(-0.00413133 0.00194234 0)
(-0.00425265 0.00191681 0)
(-0.00437242 0.00189004 0)
(-0.00449054 0.00186197 0)
(-0.00460689 0.00183258 0)
(-0.00472136 0.00180181 0)
(-0.00483381 0.00176961 0)
(-0.00494409 0.00173595 0)
(-0.00505206 0.00170078 0)
(-0.00515752 0.00166403 0)
(-0.00526029 0.00162565 0)
(-0.00536016 0.00158559 0)