/*--------------------------------*- C++ -*----------------------------------*\
  =========                 |
  \\      /  F ield         | OpenFOAM: The Open Source CFD Toolbox
   \\    /   O peration     | Website:  https://openfoam.org
    \\  /    A nd           | Version:  8
     \\/     M anipulation  |
\*---------------------------------------------------------------------------*/
FoamFile
{
    version     2.0;
    format      ascii;
    class       volScalarField;
    location    "0.14";
    object      p;
}
// * * * * * * * * * * * * * * * * * * * * * * * * * * * * * * * * * * * * * //

dimensions      [0 2 -2 0 0 0 0];

internalField   nonuniform List<scalar> 
400
(
1.87873e-11
-2.10031e-06
-4.65452e-06
-7.34313e-06
-9.7536e-06
-1.16648e-05
-1.30485e-05
-1.39277e-05
-1.43132e-05
-1.41816e-05
-1.35582e-05
-1.25318e-05
-1.11748e-05
-9.51434e-06
-7.57295e-06
-5.40558e-06
-3.10651e-06
-8.76859e-07
7.35773e-07
1.06381e-06
-1.94075e-06
-3.51874e-06
-5.49991e-06
-7.57941e-06
-9.51666e-06
-1.10958e-05
-1.2273e-05
-1.3088e-05
-1.35004e-05
-1.34446e-05
-1.29562e-05
-1.21439e-05
-1.10798e-05
-9.77295e-06
-8.23323e-06
-6.51229e-06
-4.66681e-06
-2.82631e-06
-1.43694e-06
-1.10061e-06
-3.61341e-06
-4.98503e-06
-6.51318e-06
-8.11109e-06
-9.63494e-06
-1.09176e-05
-1.19369e-05
-1.2684e-05
-1.30693e-05
-1.30252e-05
-1.26108e-05
-1.19481e-05
-1.10953e-05
-1.00329e-05
-8.7492e-06
-7.28705e-06
-5.68497e-06
-4.0569e-06
-2.8457e-06
-2.67905e-06
-5.28845e-06
-6.60023e-06
-7.6784e-06
-8.76954e-06
-9.88903e-06
-1.092e-05
-1.17984e-05
-1.24466e-05
-1.27555e-05
-1.26841e-05
-1.23197e-05
-1.17832e-05
-1.11046e-05
-1.02261e-05
-9.11351e-06
-7.81634e-06
-6.37721e-06
-4.90405e-06
-3.92302e-06
-4.1076e-06
-6.62996e-06
-7.9154e-06
-8.63618e-06
-9.29338e-06
-1.01141e-05
-1.0966e-05
-1.17043e-05
-1.22232e-05
-1.24405e-05
-1.23507e-05
-1.20465e-05
-1.16224e-05
-1.10734e-05
-1.03247e-05
-9.33864e-06
-8.1599e-06
-6.84407e-06
-5.4973e-06
-4.70038e-06
-5.19155e-06
-7.41498e-06
-8.6974e-06
-9.23037e-06
-9.63884e-06
-1.02698e-05
-1.09694e-05
-1.15577e-05
-1.19518e-05
-1.21102e-05
-1.20407e-05
-1.18103e-05
-1.14699e-05
-1.09847e-05
-1.02859e-05
-9.36962e-06
-8.29013e-06
-7.07687e-06
-5.82323e-06
-5.12543e-06
-5.78664e-06
-7.79619e-06
-9.13394e-06
-9.6196e-06
-9.90472e-06
-1.03867e-05
-1.09275e-05
-1.13723e-05
-1.16776e-05
-1.18194e-05
-1.17895e-05
-1.1618e-05
-1.13229e-05
-1.08588e-05
-1.01711e-05
-9.28624e-06
-8.27795e-06
-7.14629e-06
-5.95368e-06
-5.30554e-06
-6.04467e-06
-8.03625e-06
-9.46344e-06
-9.94337e-06
-1.01347e-05
-1.04739e-05
-1.08703e-05
-1.12103e-05
-1.14693e-05
-1.1613e-05
-1.16076e-05
-1.14588e-05
-1.11758e-05
-1.07204e-05
-1.00516e-05
-9.2055e-06
-8.25654e-06
-7.18328e-06
-6.0229e-06
-5.39729e-06
-6.18383e-06
-8.28119e-06
-9.78969e-06
-1.02504e-05
-1.03406e-05
-1.05553e-05
-1.08499e-05
-1.11318e-05
-1.13702e-05
-1.1508e-05
-1.14916e-05
-1.13238e-05
-1.10278e-05
-1.05816e-05
-9.94868e-06
-9.15709e-06
-8.26805e-06
-7.24552e-06
-6.11168e-06
-5.50288e-06
-6.33685e-06
-8.5046e-06
-1.00779e-05
-1.05244e-05
-1.05325e-05
-1.06611e-05
-1.08948e-05
-1.11408e-05
-1.13546e-05
-1.14619e-05
-1.13995e-05
-1.11784e-05
-1.0847e-05
-1.04052e-05
-9.81479e-06
-9.0855e-06
-8.2642e-06
-7.30887e-06
-6.22566e-06
-5.63847e-06
-6.50071e-06
-8.65881e-06
-1.02876e-05
-1.07638e-05
-1.07432e-05
-1.08239e-05
-1.10091e-05
-1.1204e-05
-1.13631e-05
-1.14101e-05
-1.12795e-05
-1.09887e-05
-1.06088e-05
-1.01638e-05
-9.61608e-06
-8.95667e-06
-8.21869e-06
-7.35738e-06
-6.35821e-06
-5.80058e-06
-6.64845e-06
-8.79731e-06
-1.04671e-05
-1.10162e-05
-1.1016e-05
-1.10638e-05
-1.11828e-05
-1.12911e-05
-1.13599e-05
-1.13247e-05
-1.11199e-05
-1.07611e-05
-1.03328e-05
-9.88062e-06
-9.3738e-06
-8.79019e-06
-8.14949e-06
-7.40267e-06
-6.5175e-06
-6.01417e-06
-6.82621e-06
-9.02117e-06
-1.06954e-05
-1.13136e-05
-1.13419e-05
-1.1345e-05
-1.13708e-05
-1.1365e-05
-1.13253e-05
-1.12023e-05
-1.09277e-05
-1.05087e-05
-1.00358e-05
-9.57446e-06
-9.10517e-06
-8.59959e-06
-8.06514e-06
-7.44747e-06
-6.70741e-06
-6.30861e-06
-7.11003e-06
-9.3563e-06
-1.09792e-05
-1.16111e-05
-1.16386e-05
-1.15794e-05
-1.15019e-05
-1.13817e-05
-1.12387e-05
-1.10337e-05
-1.06933e-05
-1.02164e-05
-9.69933e-06
-9.2265e-06
-8.79158e-06
-8.3639e-06
-7.94091e-06
-7.46655e-06
-6.90618e-06
-6.67047e-06
-7.50933e-06
-9.71547e-06
-1.12408e-05
-1.18252e-05
-1.18225e-05
-1.17049e-05
-1.15442e-05
-1.13344e-05
-1.11066e-05
-1.08263e-05
-1.0418e-05
-9.87944e-06
-9.31621e-06
-8.82939e-06
-8.42309e-06
-8.06565e-06
-7.75046e-06
-7.42966e-06
-7.07673e-06
-7.0385e-06
-7.94359e-06
-9.95881e-06
-1.13732e-05
-1.19035e-05
-1.18841e-05
-1.17431e-05
-1.15408e-05
-1.12758e-05
-1.09824e-05
-1.06313e-05
-1.01531e-05
-9.5516e-06
-8.94131e-06
-8.43348e-06
-8.0384e-06
-7.72733e-06
-7.50076e-06
-7.33068e-06
-7.18907e-06
-7.33802e-06
-8.29742e-06
-9.9938e-06
-1.13071e-05
-1.18456e-05
-1.18788e-05
-1.17718e-05
-1.15721e-05
-1.12802e-05
-1.09352e-05
-1.05198e-05
-9.97664e-06
-9.3154e-06
-8.65259e-06
-8.10407e-06
-7.69009e-06
-7.39318e-06
-7.22518e-06
-7.17677e-06
-7.21402e-06
-7.5111e-06
-8.4703e-06
-9.81782e-06
-1.10872e-05
-1.17303e-05
-1.19085e-05
-1.18911e-05
-1.17239e-05
-1.14218e-05
-1.10347e-05
-1.05591e-05
-9.94758e-06
-9.21337e-06
-8.47468e-06
-7.85397e-06
-7.38388e-06
-7.06095e-06
-6.90706e-06
-6.91855e-06
-7.06458e-06
-7.4614e-06
-8.38707e-06
-9.47679e-06
-1.08747e-05
-1.17513e-05
-1.21524e-05
-1.22596e-05
-1.21323e-05
-1.18168e-05
-1.13791e-05
-1.0824e-05
-1.01096e-05
-9.25651e-06
-8.39422e-06
-7.65415e-06
-7.07234e-06
-6.6506e-06
-6.42376e-06
-6.40131e-06
-6.56447e-06
-7.02336e-06
-8.00568e-06
-9.05152e-06
-1.0864e-05
-1.21327e-05
-1.28038e-05
-1.30434e-05
-1.29449e-05
-1.25935e-05
-1.20675e-05
-1.13798e-05
-1.05027e-05
-9.46999e-06
-8.41408e-06
-7.47026e-06
-6.68788e-06
-6.06895e-06
-5.63455e-06
-5.4315e-06
-5.51606e-06
-6.04482e-06
-7.259e-06
)
;

boundaryField
{
    movingWall
    {
        type            zeroGradient;
    }
    fixedWalls
    {
        type            zeroGradient;
    }
    left
    {
        type            cyclic;
    }
    right
    {
        type            cyclic;
    }
    frontAndBack
    {
        type            empty;
    }
}


// ************************************************************************* //
