/*--------------------------------*- C++ -*----------------------------------*\
  =========                 |
  \\      /  F ield         | OpenFOAM: The Open Source CFD Toolbox
   \\    /   O peration     | Website:  https://openfoam.org
    \\  /    A nd           | Version:  8
     \\/     M anipulation  |
\*---------------------------------------------------------------------------*/
FoamFile
{
    version     2.0;
    format      ascii;
    class       volScalarField;
    location    "36.5";
    object      p;
}
// * * * * * * * * * * * * * * * * * * * * * * * * * * * * * * * * * * * * * //

dimensions      [0 2 -2 0 0 0 0];

internalField   nonuniform List<scalar> 
116
(
8.55994e-09
-0.000991737
-0.00154797
-0.00337867
0.000711039
-0.00839345
0.000200611
-0.000502625
-0.00056162
-0.00383809
-0.00155077
-0.0026456
0.001064
0.000305119
-0.000174076
-0.00252773
-0.00457396
-0.00707706
0.00146508
0.000980003
-0.000114738
-0.00277856
-0.00585341
-0.00778664
0.0014325
0.000931369
-0.000549175
-0.00367402
-0.00741366
-0.00932862
0.000732708
0.000419897
-0.00101694
-0.00376674
-0.00762398
-0.00973204
0.000859475
0.000432694
-0.000809165
-0.00360821
-0.00759292
-0.010456
-0.000162344
0.00047021
3.34941e-05
-0.00160622
-0.00431151
-0.0065152
0.00106421
0.000297459
0.00161883
0.000146059
-0.0023575
-0.0049539
-0.00443089
0.00337521
0.00364441
0.00248069
-0.000541292
-0.00237211
0.00115141
0.0104016
0.00867785
0.0137249
-0.00216857
0.00190869
0.00414724
0.00748874
-0.00759558
-0.00518975
-0.00212468
0.000905267
-0.00917299
-0.00778184
-0.00633356
-0.0033672
-0.0105043
-0.00927472
-0.00877689
-0.00586615
-0.0110949
-0.00913111
-0.0093115
-0.00597827
-0.0118187
-0.00919527
-0.0103669
-0.00299409
-0.00668545
-0.00427799
-0.00368274
0.00655381
-0.00704009
-0.00478028
-0.00341724
0.0132948
-0.00261723
0.00423483
0.017409
0.053876
0.0178908
0.0171181
0.0168953
0.0196946
0.0161706
0.016337
0.0146077
0.0165935
0.0126366
0.0133679
0.0116972
0.012797
0.00889584
0.0166681
0.0102568
0.0145062
)
;

boundaryField
{
    movingWall
    {
        type            zeroGradient;
    }
    fixedWalls
    {
        type            zeroGradient;
    }
    frontAndBack
    {
        type            empty;
    }
}


// ************************************************************************* //
