/*--------------------------------*- C++ -*----------------------------------*\
  =========                 |
  \\      /  F ield         | OpenFOAM: The Open Source CFD Toolbox
   \\    /   O peration     | Website:  https://openfoam.org
    \\  /    A nd           | Version:  8
     \\/     M anipulation  |
\*---------------------------------------------------------------------------*/
FoamFile
{
    version     2.0;
    format      ascii;
    class       surfaceScalarField;
    location    "0.28";
    object      phi;
}
// * * * * * * * * * * * * * * * * * * * * * * * * * * * * * * * * * * * * * //

dimensions      [0 3 -1 0 0 0 0];

internalField   nonuniform List<scalar> 
760
(
1.4232e-08
-1.42626e-08
-2.22084e-08
3.64401e-08
-1.14257e-07
9.20487e-08
-2.45466e-07
1.31208e-07
-3.96051e-07
1.50586e-07
-5.473e-07
1.51249e-07
-6.83106e-07
1.35807e-07
-7.90564e-07
1.07458e-07
-8.60099e-07
6.95354e-08
-8.8553e-07
2.54309e-08
-8.64212e-07
-2.13181e-08
-7.9729e-07
-6.69217e-08
-6.90001e-07
-1.07289e-07
-5.51908e-07
-1.38094e-07
-3.96899e-07
-1.55009e-07
-2.42724e-07
-1.54175e-07
-1.09724e-07
-1.33e-07
-1.84166e-08
-9.1307e-08
1.56866e-08
-3.4103e-08
1.56868e-08
-3.42105e-08
1.99483e-08
-1.80353e-07
1.82583e-07
-4.3394e-07
3.45635e-07
-7.64347e-07
4.61616e-07
-1.13208e-06
5.18322e-07
-1.49707e-06
5.16239e-07
-1.82313e-06
4.61863e-07
-2.0803e-06
3.64627e-07
-2.24602e-06
2.35256e-07
-2.30578e-06
8.519e-08
-2.25364e-06
-7.34497e-08
-2.09281e-06
-2.27753e-07
-1.83606e-06
-3.64045e-07
-1.50588e-06
-4.68274e-07
-1.13396e-06
-5.26926e-07
-7.59442e-07
-5.28693e-07
-4.25358e-07
-4.67085e-07
-1.72676e-07
-3.43989e-07
-3.08e-08
-1.75979e-07
-1.51131e-08
-9.22168e-08
1.12165e-07
-3.56955e-07
4.47321e-07
-7.64471e-07
7.5315e-07
-1.26834e-06
9.65487e-07
-1.81449e-06
1.06447e-06
-2.34877e-06
1.05052e-06
-2.82211e-06
9.35197e-07
-3.19357e-06
7.36093e-07
-3.43221e-06
4.73897e-07
-3.51811e-06
1.71086e-07
-3.44318e-06
-1.48378e-07
-3.2119e-06
-4.59039e-07
-2.84179e-06
-7.34152e-07
-2.36354e-06
-9.4652e-07
-1.82012e-06
-1.07035e-06
-1.26435e-06
-1.08446e-06
-7.54443e-07
-9.76994e-07
-3.46935e-07
-7.51497e-07
-8.73273e-08
-4.35587e-07
-1.0244e-07
-1.45193e-07
2.57359e-07
-5.25401e-07
8.27529e-07
-1.08151e-06
1.30926e-06
-1.74731e-06
1.63129e-06
-2.45405e-06
1.77121e-06
-3.13602e-06
1.73249e-06
-3.73487e-06
1.53405e-06
-4.20243e-06
1.20366e-06
-4.50241e-06
7.73878e-07
-4.61141e-06
2.80086e-07
-4.51976e-06
-2.40033e-07
-4.23227e-06
-7.46525e-07
-3.76896e-06
-1.19746e-06
-3.1653e-06
-1.55018e-06
-2.47162e-06
-1.76404e-06
-1.75089e-06
-1.80519e-06
-1.0744e-06
-1.65348e-06
-5.15086e-07
-1.31081e-06
-1.39301e-07
-8.11372e-07
-2.41741e-07
-1.93588e-07
4.50947e-07
-6.84927e-07
1.31887e-06
-1.38547e-06
2.00981e-06
-2.20701e-06
2.45282e-06
-3.06514e-06
2.62935e-06
-3.88337e-06
2.55072e-06
-4.59602e-06
2.2467e-06
-5.15004e-06
1.75768e-06
-5.50588e-06
1.12971e-06
-5.63794e-06
4.12153e-07
-5.53519e-06
-3.42785e-07
-5.20185e-06
-1.07987e-06
-4.65842e-06
-1.7409e-06
-3.94257e-06
-2.26603e-06
-3.1094e-06
-2.5972e-06
-2.23028e-06
-2.68431e-06
-1.38951e-06
-2.49426e-06
-6.78434e-07
-2.02188e-06
-1.87749e-07
-1.30206e-06
-4.2949e-07
-2.39918e-07
6.90864e-07
-8.40271e-07
1.91922e-06
-1.68313e-06
2.85267e-06
-2.65682e-06
3.42651e-06
-3.66051e-06
3.63304e-06
-4.60735e-06
3.49757e-06
-5.42587e-06
3.06521e-06
-6.06003e-06
2.39185e-06
-6.46878e-06
1.53846e-06
-6.62547e-06
5.68841e-07
-6.51776e-06
-4.505e-07
-6.14828e-06
-1.44935e-06
-5.53608e-06
-2.3531e-06
-4.71853e-06
-3.08357e-06
-3.75316e-06
-3.56258e-06
-2.71826e-06
-3.7192e-06
-1.7114e-06
-3.50112e-06
-8.44594e-07
-2.88869e-06
-2.3616e-07
-1.91049e-06
-6.6565e-07
-2.86724e-07
9.77588e-07
-9.97015e-07
2.62951e-06
-1.98194e-06
3.8376e-06
-3.10473e-06
4.54929e-06
-4.24766e-06
4.77597e-06
-5.31445e-06
4.56435e-06
-6.22968e-06
3.98044e-06
-6.93669e-06
3.09885e-06
-7.39498e-06
1.99675e-06
-7.57811e-06
7.51969e-07
-7.47266e-06
-5.55947e-07
-7.07865e-06
-1.84336e-06
-6.41147e-06
-3.02027e-06
-5.50524e-06
-3.9898e-06
-4.41679e-06
-4.65103e-06
-3.22918e-06
-4.90681e-06
-2.05283e-06
-4.67746e-06
-1.02248e-06
-3.91904e-06
-2.88263e-07
-2.6447e-06
-9.53913e-07
-3.36315e-07
1.3139e-06
-1.16032e-06
3.45351e-06
-2.28791e-06
4.96519e-06
-3.55483e-06
5.81621e-06
-4.82639e-06
6.04753e-06
-5.99878e-06
5.73674e-06
-6.99569e-06
4.97736e-06
-7.76314e-06
3.8663e-06
-8.26408e-06
2.49769e-06
-8.47421e-06
9.62092e-07
-8.37956e-06
-6.50588e-07
-7.97653e-06
-2.2464e-06
-7.27425e-06
-3.72255e-06
-6.29968e-06
-4.96438e-06
-5.10446e-06
-5.84625e-06
-3.77237e-06
-6.2389e-06
-2.42479e-06
-6.02505e-06
-1.2207e-06
-5.12313e-06
-3.47693e-07
-3.51771e-06
-1.30161e-06
-3.90947e-07
1.70485e-06
-1.33485e-06
4.39742e-06
-2.60491e-06
6.23525e-06
-4.00584e-06
7.21714e-06
-5.38667e-06
7.42836e-06
-6.63957e-06
6.98964e-06
-7.69222e-06
6.03001e-06
-8.49822e-06
4.67231e-06
-9.02816e-06
3.02762e-06
-9.26266e-06
1.19659e-06
-9.18839e-06
-7.24854e-07
-8.79724e-06
-2.63755e-06
-8.08915e-06
-4.43064e-06
-7.07884e-06
-5.97469e-06
-5.80618e-06
-7.11891e-06
-4.34894e-06
-7.69614e-06
-2.83475e-06
-7.53925e-06
-1.44706e-06
-6.51082e-06
-4.18088e-07
-4.54668e-06
-1.71969e-06
-4.53451e-07
2.1583e-06
-1.52567e-06
5.46964e-06
-2.93486e-06
7.64444e-06
-4.45009e-06
8.73236e-06
-5.90629e-06
8.88456e-06
-7.19776e-06
8.28112e-06
-8.2636e-06
7.09585e-06
-9.072e-06
5.48071e-06
-9.6068e-06
3.56242e-06
-9.85752e-06
1.44731e-06
-9.81335e-06
-7.69026e-07
-9.46131e-06
-2.98959e-06
-8.78904e-06
-5.10291e-06
-7.79294e-06
-6.97079e-06
-6.49216e-06
-8.41969e-06
-4.94793e-06
-9.24037e-06
-3.28509e-06
-9.20209e-06
-1.70866e-06
-8.08724e-06
-5.03582e-07
-5.75176e-06
-2.22328e-06
-5.28341e-07
2.68664e-06
-1.73968e-06
6.68098e-06
-3.278e-06
9.18277e-06
-4.87167e-06
1.0326e-05
-6.34707e-06
1.036e-05
-7.61089e-06
9.54494e-06
-8.62443e-06
8.10939e-06
-9.37977e-06
6.23605e-06
-9.88108e-06
4.06373e-06
-1.01316e-05
1.69785e-06
-1.01259e-05
-7.74781e-07
-9.8464e-06
-3.26905e-06
-9.26605e-06
-5.68327e-06
-8.35638e-06
-7.88046e-06
-7.10473e-06
-9.67135e-06
-5.54072e-06
-1.08044e-05
-3.77071e-06
-1.09721e-05
-2.01217e-06
-9.84579e-06
-6.09688e-07
-7.15424e-06
-2.83296e-06
-6.23678e-07
3.31032e-06
-1.98742e-06
8.04472e-06
-3.63198e-06
1.08273e-05
-5.24204e-06
1.19361e-05
-6.64772e-06
1.17656e-05
-7.78467e-06
1.06819e-05
-8.65123e-06
8.97596e-06
-9.27455e-06
6.85936e-06
-9.68679e-06
4.47597e-06
-9.91007e-06
1.92114e-06
-9.94748e-06
-7.37373e-07
-9.77881e-06
-3.43772e-06
-9.36108e-06
-6.10099e-06
-8.63578e-06
-8.60576e-06
-7.5465e-06
-1.07606e-05
-6.07166e-06
-1.22792e-05
-4.27432e-06
-1.27694e-05
-2.36367e-06
-1.17564e-05
-7.44782e-07
-8.77313e-06
-3.57775e-06
-7.54094e-07
4.06441e-06
-2.28441e-06
9.57503e-06
-3.98712e-06
1.253e-05
-5.50927e-06
1.34582e-05
-6.70984e-06
1.29662e-05
-7.57885e-06
1.15509e-05
-8.1704e-06
9.5675e-06
-8.55801e-06
7.24697e-06
-8.80813e-06
4.7261e-06
-8.96546e-06
2.07846e-06
-9.04476e-06
-6.58069e-07
-9.02612e-06
-3.45636e-06
-8.85292e-06
-6.27419e-06
-8.43509e-06
-9.02359e-06
-7.66312e-06
-1.15326e-05
-6.44215e-06
-1.35002e-05
-4.75634e-06
-1.44552e-05
-2.76679e-06
-1.3746e-05
-9.22445e-07
-1.06175e-05
-4.50019e-06
-9.45227e-07
5.00964e-06
-2.64856e-06
1.12784e-05
-4.31113e-06
1.41926e-05
-5.5735e-06
1.47206e-05
-6.37096e-06
1.37637e-05
-6.78362e-06
1.19636e-05
-6.9409e-06
9.72478e-06
-6.97017e-06
7.27624e-06
-6.97324e-06
4.72916e-06
-7.01696e-06
2.12219e-06
-7.12905e-06
-5.45982e-07
-7.29417e-06
-3.29124e-06
-7.449e-06
-6.11936e-06
-7.47819e-06
-8.9944e-06
-7.21817e-06
-1.17926e-05
-6.48292e-06
-1.42354e-05
-5.13354e-06
-1.58046e-05
-3.21503e-06
-1.56645e-05
-1.1644e-06
-1.26681e-05
-5.66459e-06
-1.23734e-06
6.24698e-06
-3.08336e-06
1.31244e-05
-4.50784e-06
1.56171e-05
-5.2347e-06
1.54475e-05
-5.35551e-06
1.38845e-05
-5.0822e-06
1.16902e-05
-4.63132e-06
9.2739e-06
-4.17973e-06
6.82465e-06
-3.85485e-06
4.40429e-06
-3.73752e-06
2.00486e-06
-3.86561e-06
-4.1789e-07
-4.23309e-06
-2.92376e-06
-4.78248e-06
-5.56996e-06
-5.3914e-06
-8.38548e-06
-5.85876e-06
-1.13253e-05
-5.90676e-06
-1.41874e-05
-5.23294e-06
-1.64785e-05
-3.66633e-06
-1.72311e-05
-1.5001e-06
-1.48343e-05
-7.16469e-06
-1.67382e-06
7.9208e-06
-3.51343e-06
1.4964e-05
-4.31543e-06
1.64191e-05
-4.08907e-06
1.52211e-05
-3.19333e-06
1.29887e-05
-1.99909e-06
1.0496e-05
-7.95561e-07
8.07037e-06
2.1887e-07
5.81022e-06
9.17734e-07
3.70542e-06
1.2251e-06
1.6975e-06
1.10157e-06
-2.9436e-07
5.40597e-07
-2.36279e-06
-4.23343e-07
-4.60603e-06
-1.69292e-06
-7.11591e-06
-3.07268e-06
-9.94549e-06
-4.23102e-06
-1.30291e-05
-4.69577e-06
-1.60137e-05
-3.96724e-06
-1.79596e-05
-1.94494e-06
-1.68566e-05
-9.10963e-06
-2.2307e-06
1.01515e-05
-3.59034e-06
1.63236e-05
-3.07788e-06
1.59066e-05
-1.34405e-06
1.34873e-05
8.96791e-07
1.07479e-05
3.15465e-06
8.23814e-06
5.13774e-06
6.08728e-06
6.68826e-06
4.25969e-06
7.72537e-06
2.66831e-06
8.20608e-06
1.21679e-06
8.10342e-06
-1.91705e-07
7.3986e-06
-1.65797e-06
6.08647e-06
-3.2939e-06
4.19886e-06
-5.22829e-06
1.85389e-06
-7.60052e-06
-6.619e-07
-1.05133e-05
-2.79229e-06
-1.38833e-05
-3.66215e-06
-1.70898e-05
-2.41156e-06
-1.81072e-05
-1.15212e-05
-2.57382e-06
1.27253e-05
-2.18349e-06
1.59333e-05
7.17998e-07
1.30051e-05
4.46944e-06
9.73583e-06
8.1331e-06
7.08424e-06
1.13013e-05
5.06992e-06
1.38288e-05
3.55982e-06
1.56877e-05
2.40074e-06
1.68913e-05
1.46477e-06
1.74545e-05
6.53591e-07
1.7376e-05
-1.13193e-07
1.66301e-05
-9.12127e-07
1.51669e-05
-1.83062e-06
1.29232e-05
-2.98468e-06
9.86154e-06
-4.53882e-06
6.06181e-06
-6.71357e-06
1.91224e-06
-9.73374e-06
-1.55967e-06
-1.36179e-05
-2.45835e-06
-1.72085e-05
-1.39795e-05
-7.85012e-07
1.35103e-05
4.08078e-06
1.10675e-05
1.02975e-05
6.78842e-06
1.57936e-05
4.23978e-06
2.01579e-05
2.71989e-06
2.34579e-05
1.76993e-06
2.58606e-05
1.15712e-06
2.75213e-05
7.40039e-07
2.85538e-05
4.32284e-07
2.90262e-05
1.81218e-07
2.8962e-05
-4.89787e-08
2.83385e-05
-2.88691e-07
2.70816e-05
-5.73728e-07
2.50549e-05
-9.57941e-07
2.20516e-05
-1.53551e-06
1.78154e-05
-2.4774e-06
1.21723e-05
-4.09067e-06
5.47769e-06
-6.92323e-06
-1.29177e-07
-1.16017e-05
-1.41087e-05
1.35103e-05
2.45779e-05
3.13663e-05
3.56061e-05
3.83259e-05
4.00959e-05
4.1253e-05
4.1993e-05
4.24253e-05
4.26065e-05
4.25575e-05
4.22689e-05
4.16951e-05
4.07372e-05
3.92017e-05
3.67243e-05
3.26336e-05
2.57104e-05
1.41087e-05
)
;

boundaryField
{
    movingWall
    {
        type            calculated;
        value           uniform 0;
    }
    fixedWalls
    {
        type            calculated;
        value           uniform 0;
    }
    frontAndBack
    {
        type            empty;
        value           nonuniform List<scalar> 0();
    }
}


// ************************************************************************* //
