/*--------------------------------*- C++ -*----------------------------------*\
  =========                 |
  \\      /  F ield         | OpenFOAM: The Open Source CFD Toolbox
   \\    /   O peration     | Website:  https://openfoam.org
    \\  /    A nd           | Version:  8
     \\/     M anipulation  |
\*---------------------------------------------------------------------------*/
FoamFile
{
    version     2.0;
    format      ascii;
    class       volVectorField;
    location    "0.28";
    object      U;
}
// * * * * * * * * * * * * * * * * * * * * * * * * * * * * * * * * * * * * * //

dimensions      [0 1 -1 0 0 0 0];

internalField   nonuniform List<vector> 
400
(
(0.000253381 -0.000250372 0)
(0.000141195 0.000111435 0)
(-0.00117686 0.00056454 0)
(-0.00348071 0.000884868 0)
(-0.00637671 0.00104557 0)
(-0.00946831 0.0010616 0)
(-0.0124014 0.000957719 0)
(-0.0148831 0.000760338 0)
(-0.0166875 0.000494583 0)
(-0.0176562 0.000184543 0)
(-0.0177001 -0.000145242 0)
(-0.0168031 -0.0004683 0)
(-0.0150284 -0.000755312 0)
(-0.0125237 -0.000974137 0)
(-0.00952536 -0.00109105 0)
(-0.00635433 -0.00107388 0)
(-0.00340032 -0.00089802 0)
(-0.00108637 -0.000556335 0)
(0.00019637 -9.0369e-05 0)
(0.00026782 0.000262346 0)
(-7.74489e-05 -0.000169295 0)
(-0.00161136 0.00164468 0)
(-0.00569224 0.00361689 0)
(-0.0117175 0.00503423 0)
(-0.0188901 0.00574255 0)
(-0.0263978 0.00575952 0)
(-0.0334654 0.00517107 0)
(-0.0394224 0.00409205 0)
(-0.0437392 0.00264735 0)
(-0.0460421 0.000966849 0)
(-0.0461245 -0.000813089 0)
(-0.0439567 -0.00254674 0)
(-0.039697 -0.00407814 0)
(-0.0336992 -0.00524449 0)
(-0.0265107 -0.0058859 0)
(-0.0188527 -0.00586422 0)
(-0.0115656 -0.00509423 0)
(-0.0055128 -0.00358907 0)
(-0.00149297 -0.00155901 0)
(-4.25855e-05 0.000227408 0)
(-0.000528539 0.00109154 0)
(-0.00371097 0.00573569 0)
(-0.0105878 0.0102233 0)
(-0.0199896 0.0134062 0)
(-0.0307616 0.0149446 0)
(-0.0418179 0.0148371 0)
(-0.0521145 0.0132542 0)
(-0.060738 0.010455 0)
(-0.0669627 0.00674129 0)
(-0.0702757 0.00243868 0)
(-0.0703937 -0.00210621 0)
(-0.0672778 -0.00652464 0)
(-0.0611465 -0.010428 0)
(-0.0524835 -0.0134195 0)
(-0.0420331 -0.0151218 0)
(-0.0307711 -0.015224 0)
(-0.0198273 -0.0135546 0)
(-0.0103626 -0.0101779 0)
(-0.0035482 -0.00555057 0)
(-0.000476803 -0.000948775 0)
(-0.000928116 0.00347949 0)
(-0.0056909 0.0122193 0)
(-0.0153003 0.0199195 0)
(-0.0279142 0.0251951 0)
(-0.0419814 0.027594 0)
(-0.0561738 0.0271345 0)
(-0.0692456 0.0241063 0)
(-0.0801182 0.0189518 0)
(-0.0879401 0.0121943 0)
(-0.0921104 0.00440474 0)
(-0.0922951 -0.00380739 0)
(-0.0884423 -0.0117951 0)
(-0.0807978 -0.01888 0)
(-0.0699169 -0.0243736 0)
(-0.0566644 -0.0276246 0)
(-0.0421912 -0.0280988 0)
(-0.0278543 -0.0254951 0)
(-0.0150924 -0.0198897 0)
(-0.00550457 -0.0119266 0)
(-0.00086152 -0.00322459 0)
(-0.0012788 0.00687708 0)
(-0.00753535 0.0209515 0)
(-0.0198031 0.0325069 0)
(-0.0355319 0.0400989 0)
(-0.052739 0.0432857 0)
(-0.0698528 0.0421883 0)
(-0.0854564 0.0372736 0)
(-0.0983526 0.02921 0)
(-0.107611 0.0187754 0)
(-0.112579 0.00681322 0)
(-0.112888 -0.00577951 0)
(-0.108466 -0.0180525 0)
(-0.0995545 -0.0290081 0)
(-0.0867326 -0.0376286 0)
(-0.0709304 -0.0429404 0)
(-0.0534263 -0.0441243 0)
(-0.0357819 -0.0406747 0)
(-0.0197337 -0.0325893 0)
(-0.00737002 -0.0205887 0)
(-0.00120357 -0.00649756 0)
(-0.00160738 0.0112145 0)
(-0.00931729 0.0318713 0)
(-0.0242074 0.0479469 0)
(-0.0429995 0.0580659 0)
(-0.0632524 0.0619306 0)
(-0.0831469 0.0598748 0)
(-0.101117 0.0526227 0)
(-0.115884 0.0411216 0)
(-0.126479 0.0264345 0)
(-0.132228 0.00969218 0)
(-0.13274 -0.0079151 0)
(-0.127914 -0.025129 0)
(-0.117958 -0.0406203 0)
(-0.103427 -0.0530135 0)
(-0.0852631 -0.0609598 0)
(-0.0648312 -0.0632736 0)
(-0.0438825 -0.0591361 0)
(-0.024476 -0.0483397 0)
(-0.00925367 -0.0315546 0)
(-0.00153763 -0.0107276 0)
(-0.00193991 0.0164754 0)
(-0.0111205 0.0449697 0)
(-0.0286485 0.0662266 0)
(-0.0504766 0.0790513 0)
(-0.0736802 0.0834377 0)
(-0.0961976 0.0800658 0)
(-0.116344 0.0700171 0)
(-0.132806 0.0545793 0)
(-0.144622 0.0351283 0)
(-0.151132 0.0130838 0)
(-0.15194 -0.0100849 0)
(-0.146906 -0.0328286 0)
(-0.136173 -0.0534936 0)
(-0.120216 -0.0703293 0)
(-0.0999267 -0.0815568 0)
(-0.0766969 -0.0855242 0)
(-0.0524371 -0.0809559 0)
(-0.0295431 -0.0672707 0)
(-0.0112829 -0.0449355 0)
(-0.00189995 -0.0159501 0)
(-0.00229991 0.0226928 0)
(-0.0130244 0.0602951 0)
(-0.0332491 0.0873552 0)
(-0.0580768 0.102986 0)
(-0.0840703 0.107655 0)
(-0.108948 0.102551 0)
(-0.130961 0.0892353 0)
(-0.148827 0.0694041 0)
(-0.161658 0.0447675 0)
(-0.168859 0.0170187 0)
(-0.170054 -0.0121316 0)
(-0.165063 -0.0408884 0)
(-0.153922 -0.067307 0)
(-0.136963 -0.089264 0)
(-0.114937 -0.104502 0)
(-0.0891717 -0.110786 0)
(-0.0616679 -0.106203 0)
(-0.0351468 -0.0895717 0)
(-0.0135852 -0.0609444 0)
(-0.00232622 -0.0222757 0)
(-0.00271155 0.0299444 0)
(-0.0151075 0.0779497 0)
(-0.0381135 0.111346 0)
(-0.0658462 0.129738 0)
(-0.0943236 0.134305 0)
(-0.121095 0.126962 0)
(-0.144439 0.109892 0)
(-0.163207 0.0852739 0)
(-0.176681 0.0551624 0)
(-0.1844 0.0214856 0)
(-0.186051 -0.0138725 0)
(-0.181416 -0.0489511 0)
(-0.170389 -0.081585 0)
(-0.153076 -0.109313 0)
(-0.129967 -0.129369 0)
(-0.102183 -0.138816 0)
(-0.0716873 -0.134876 0)
(-0.0414657 -0.11546 0)
(-0.0162875 -0.0798893 0)
(-0.0028546 -0.0298874 0)
(-0.00320763 0.0383566 0)
(-0.017466 0.0980818 0)
(-0.0433406 0.138178 0)
(-0.0737558 0.159033 0)
(-0.104159 0.162887 0)
(-0.13203 0.15266 0)
(-0.155824 0.13133 0)
(-0.174676 0.101632 0)
(-0.188165 0.0659525 0)
(-0.196065 0.0263881 0)
(-0.198183 -0.0151103 0)
(-0.194281 -0.0565394 0)
(-0.184079 -0.095633 0)
(-0.167364 -0.129678 0)
(-0.144213 -0.155411 0)
(-0.115337 -0.169084 0)
(-0.0824447 -0.16679 0)
(-0.0486355 -0.145114 0)
(-0.0195285 -0.102153 0)
(-0.00353351 -0.0390447 0)
(-0.003844 0.0481256 0)
(-0.0202464 0.120886 0)
(-0.0490471 0.167741 0)
(-0.0816872 0.190353 0)
(-0.113054 0.192543 0)
(-0.140748 0.178602 0)
(-0.163623 0.152501 0)
(-0.181311 0.117584 0)
(-0.193848 0.0765297 0)
(-0.201363 0.0314929 0)
(-0.203859 -0.0156565 0)
(-0.201111 -0.0630444 0)
(-0.19265 -0.108482 0)
(-0.177858 -0.149159 0)
(-0.156225 -0.181402 0)
(-0.12778 -0.200593 0)
(-0.0936444 -0.201412 0)
(-0.0567331 -0.178563 0)
(-0.0234798 -0.128166 0)
(-0.00443553 -0.0501018 0)
(-0.00472548 0.0595683 0)
(-0.0236952 0.14661 0)
(-0.0553843 0.199746 0)
(-0.0893787 0.222778 0)
(-0.120125 0.221879 0)
(-0.14568 0.203175 0)
(-0.165636 0.171829 0)
(-0.180377 0.131802 0)
(-0.190587 0.0859648 0)
(-0.196869 0.036375 0)
(-0.199508 -0.0153683 0)
(-0.198341 -0.0677373 0)
(-0.192722 -0.118858 0)
(-0.181578 -0.166067 0)
(-0.163648 -0.205476 0)
(-0.137969 -0.231648 0)
(-0.104597 -0.237613 0)
(-0.0657343 -0.215515 0)
(-0.028378 -0.158361 0)
(-0.00568212 -0.0635496 0)
(-0.00605175 0.0732258 0)
(-0.0282267 0.175557 0)
(-0.0625108 0.233561 0)
(-0.0962605 0.254735 0)
(-0.123862 0.248719 0)
(-0.144404 0.224015 0)
(-0.158678 0.187097 0)
(-0.168116 0.142454 0)
(-0.17421 0.0929642 0)
(-0.178128 0.0403777 0)
(-0.180494 -0.0141965 0)
(-0.181275 -0.069816 0)
(-0.179703 -0.125203 0)
(-0.174277 -0.17817 0)
(-0.1629 -0.224962 0)
(-0.14332 -0.259576 0)
(-0.11394 -0.273318 0)
(-0.0753945 -0.255057 0)
(-0.0345568 -0.193084 0)
(-0.00748637 -0.0801018 0)
(-0.00819226 0.0900443 0)
(-0.0344837 0.208015 0)
(-0.0704147 0.267875 0)
(-0.101027 0.283597 0)
(-0.12158 0.269801 0)
(-0.133115 0.237831 0)
(-0.138172 0.195396 0)
(-0.139473 0.147226 0)
(-0.139378 0.095905 0)
(-0.139607 0.0426183 0)
(-0.141121 -0.0122314 0)
(-0.144066 -0.0685028 0)
(-0.147679 -0.125787 0)
(-0.150178 -0.182761 0)
(-0.148727 -0.236315 0)
(-0.139648 -0.280437 0)
(-0.119098 -0.305016 0)
(-0.0849378 -0.295151 0)
(-0.0424411 -0.232371 0)
(-0.0102161 -0.100835 0)
(-0.0117677 0.111634 0)
(-0.0432607 0.243957 0)
(-0.0782997 0.300028 0)
(-0.100632 0.305085 0)
(-0.108357 0.280452 0)
(-0.105739 0.240374 0)
(-0.0975385 0.193274 0)
(-0.0877812 0.143543 0)
(-0.0795121 0.0930323 0)
(-0.074797 0.0420938 0)
(-0.0748145 -0.00972763 0)
(-0.0799018 -0.0632077 0)
(-0.0894729 -0.118985 0)
(-0.101797 -0.17695 0)
(-0.113693 -0.235277 0)
(-0.12031 -0.288874 0)
(-0.115267 -0.327188 0)
(-0.0922684 -0.331788 0)
(-0.0523164 -0.275399 0)
(-0.0144305 -0.127345 0)
(-0.0175495 0.140658 0)
(-0.0547654 0.282143 0)
(-0.0827884 0.324714 0)
(-0.0880842 0.312468 0)
(-0.075114 0.27445 0)
(-0.0525982 0.226764 0)
(-0.0274672 0.177283 0)
(-0.00452463 0.129131 0)
(0.0130878 0.08291 0)
(0.0234285 0.0379459 0)
(0.0253871 -0.00707272 0)
(0.0184965 -0.0537561 0)
(0.00296986 -0.103748 0)
(-0.0200055 -0.158315 0)
(-0.0476929 -0.217496 0)
(-0.07499 -0.278355 0)
(-0.0935502 -0.331785 0)
(-0.0920657 -0.357678 0)
(-0.0632813 -0.319291 0)
(-0.0206337 -0.161972 0)
(-0.0254498 0.181711 0)
(-0.0657752 0.31777 0)
(-0.0733347 0.33136 0)
(-0.0480801 0.295397 0)
(-0.00558286 0.244208 0)
(0.0412123 0.192376 0)
(0.0846453 0.145043 0)
(0.120527 0.102969 0)
(0.146692 0.0651359 0)
(0.162037 0.0298907 0)
(0.165931 -0.0046711 0)
(0.157926 -0.0406269 0)
(0.137723 -0.080244 0)
(0.105432 -0.125915 0)
(0.0622555 -0.179723 0)
(0.0118007 -0.242017 0)
(-0.0378333 -0.307874 0)
(-0.0716813 -0.36014 0)
(-0.0700563 -0.356606 0)
(-0.0279124 -0.208374 0)
(-0.029649 0.239176 0)
(-0.0608416 0.335767 0)
(-0.0219435 0.300502 0)
(0.0505397 0.240125 0)
(0.127569 0.182947 0)
(0.197003 0.135387 0)
(0.25433 0.0973969 0)
(0.298243 0.0668494 0)
(0.328816 0.0413542 0)
(0.346458 0.0187782 0)
(0.351367 -0.0027939 0)
(0.343294 -0.0252643 0)
(0.321461 -0.0507863 0)
(0.284636 -0.0820463 0)
(0.231566 -0.122444 0)
(0.162177 -0.175667 0)
(0.0798977 -0.243429 0)
(-0.00319148 -0.319134 0)
(-0.0546702 -0.368611 0)
(-0.0284595 -0.267618 0)
(0.00808314 0.281862 0)
(0.019783 0.294972 0)
(0.139065 0.210972 0)
(0.264459 0.143476 0)
(0.364365 0.0971851 0)
(0.440361 0.0657765 0)
(0.496738 0.0442366 0)
(0.536868 0.0288853 0)
(0.563441 0.0171984 0)
(0.578299 0.00748464 0)
(0.582374 -0.001494 0)
(0.575689 -0.0108449 0)
(0.557303 -0.0218465 0)
(0.52513 -0.0363342 0)
(0.475773 -0.0572588 0)
(0.404534 -0.0893833 0)
(0.305174 -0.13974 0)
(0.173416 -0.216386 0)
(0.0411717 -0.311655 0)
(0.0184302 -0.299995 0)
(0.299604 0.146091 0)
(0.396272 0.127503 0)
(0.55742 0.0760894 0)
(0.674487 0.0437231 0)
(0.743888 0.0255719 0)
(0.787152 0.015242 0)
(0.815484 0.00921217 0)
(0.833953 0.00550929 0)
(0.845383 0.00302711 0)
(0.851369 0.00114933 0)
(0.852663 -0.000499349 0)
(0.84938 -0.00221499 0)
(0.840997 -0.00433844 0)
(0.826139 -0.00742394 0)
(0.802077 -0.0125321 0)
(0.76362 -0.0217727 0)
(0.699107 -0.0392828 0)
(0.583952 -0.07266 0)
(0.415827 -0.127868 0)
(0.308819 -0.149468 0)
)
;

boundaryField
{
    movingWall
    {
        type            fixedValue;
        value           uniform (1 0 0);
    }
    fixedWalls
    {
        type            noSlip;
    }
    frontAndBack
    {
        type            empty;
    }
}


// ************************************************************************* //
