/*--------------------------------*- C++ -*----------------------------------*\
  =========                 |
  \\      /  F ield         | OpenFOAM: The Open Source CFD Toolbox
   \\    /   O peration     | Website:  https://openfoam.org
    \\  /    A nd           | Version:  8
     \\/     M anipulation  |
\*---------------------------------------------------------------------------*/
FoamFile
{
    version     2.0;
    format      ascii;
    class       surfaceScalarField;
    location    "1.81";
    object      phi;
}
// * * * * * * * * * * * * * * * * * * * * * * * * * * * * * * * * * * * * * //

dimensions      [0 3 -1 0 0 0 0];

internalField   nonuniform List<scalar> 
760
(
1.24967e-06
4.09275e-21
1.24967e-06
8.90769e-22
1.24967e-06
2.34933e-22
1.24967e-06
1.27487e-22
1.24967e-06
-2.00518e-22
1.24967e-06
-2.06867e-22
1.24967e-06
1.78189e-24
1.24967e-06
-1.55913e-22
1.24967e-06
1.16306e-22
1.24967e-06
1.30686e-22
1.24967e-06
1.68097e-22
1.24967e-06
4.29462e-22
1.24967e-06
4.95907e-22
1.24967e-06
4.94088e-22
1.24967e-06
4.62285e-22
1.24967e-06
5.72991e-22
1.24967e-06
8.4303e-22
1.24967e-06
6.78478e-22
1.24967e-06
7.71569e-22
1.31638e-21
3.74903e-06
3.94687e-22
3.74903e-06
-1.68266e-22
3.74903e-06
-4.91711e-22
3.74903e-06
-8.34691e-22
3.74903e-06
-8.15458e-22
3.74903e-06
-1.30618e-21
3.74903e-06
-7.09406e-22
3.74903e-06
1.43346e-22
3.74903e-06
-8.22943e-23
3.74903e-06
3.81675e-22
3.74903e-06
9.07504e-22
3.74903e-06
6.89136e-22
3.74903e-06
1.42123e-21
3.74903e-06
1.97408e-21
3.74903e-06
1.64627e-21
3.74903e-06
1.47779e-21
3.74903e-06
2.55089e-21
3.74903e-06
1.74098e-21
3.74903e-06
1.12554e-21
2.81298e-22
6.24841e-06
-2.05674e-22
6.24841e-06
-1.05391e-21
6.24841e-06
-1.22766e-21
6.24841e-06
-1.18843e-21
6.24841e-06
-1.55052e-21
6.24841e-06
-2.03671e-21
6.24841e-06
-1.52799e-21
6.24841e-06
-1.00216e-21
6.24841e-06
-1.06414e-21
6.24841e-06
-1.96218e-22
6.24841e-06
1.45741e-21
6.24841e-06
2.56305e-21
6.24841e-06
2.29204e-21
6.24841e-06
2.43025e-21
6.24841e-06
3.2352e-21
6.24841e-06
2.82517e-21
6.24841e-06
3.91285e-21
6.24841e-06
3.01877e-21
6.24841e-06
7.3331e-22
4.73596e-22
8.74783e-06
-1.09333e-21
8.74783e-06
-8.43703e-22
8.74783e-06
-1.71346e-21
8.74783e-06
-2.97022e-21
8.74783e-06
-4.20068e-21
8.74783e-06
-2.46125e-21
8.74783e-06
-1.55834e-21
8.74783e-06
-1.66628e-21
8.74783e-06
-8.54767e-22
8.74783e-06
-5.48461e-22
8.74783e-06
-1.47228e-22
8.74783e-06
6.83623e-22
8.74783e-06
1.49432e-21
8.74783e-06
2.37856e-21
8.74783e-06
2.91047e-21
8.74783e-06
4.93576e-21
8.74783e-06
4.75421e-21
8.74783e-06
5.01986e-21
8.74783e-06
3.64407e-21
1.09121e-21
1.12473e-05
2.65155e-22
1.12473e-05
-2.09061e-21
1.12473e-05
-2.61459e-21
1.12473e-05
-3.83604e-21
1.12473e-05
-4.80959e-21
1.12473e-05
-2.70162e-21
1.12473e-05
-2.63271e-21
1.12473e-05
-2.52934e-21
1.12473e-05
-1.44886e-21
1.12473e-05
-6.85148e-22
1.12473e-05
3.5817e-22
1.12473e-05
-6.61526e-22
1.12473e-05
1.1396e-21
1.12473e-05
3.20476e-21
1.12473e-05
5.21921e-21
1.12473e-05
5.65553e-21
1.12473e-05
6.42678e-21
1.12473e-05
6.02535e-21
1.12473e-05
4.87129e-21
2.24189e-21
1.37468e-05
1.91615e-22
1.37468e-05
-1.37756e-21
1.37468e-05
-3.89055e-21
1.37468e-05
-6.3716e-21
1.37468e-05
-5.35838e-21
1.37468e-05
-4.77146e-21
1.37468e-05
-2.74884e-21
1.37468e-05
-3.0435e-21
1.37468e-05
-1.41879e-21
1.37468e-05
-1.68699e-21
1.37468e-05
-1.26715e-21
1.37468e-05
1.44185e-21
1.37468e-05
2.10258e-21
1.37468e-05
3.6495e-21
1.37468e-05
7.12692e-21
1.37468e-05
8.31573e-21
1.37468e-05
8.05335e-21
1.37468e-05
6.71175e-21
1.37468e-05
4.4355e-21
1.50803e-21
1.62465e-05
-2.44255e-21
1.62465e-05
-5.13713e-21
1.62465e-05
-7.14815e-21
1.62465e-05
-8.28216e-21
1.62465e-05
-5.58767e-21
1.62465e-05
-5.26432e-21
1.62465e-05
-4.88986e-21
1.62465e-05
-4.34496e-21
1.62465e-05
-3.59471e-21
1.62465e-05
-6.68457e-22
1.62465e-05
1.25117e-21
1.62465e-05
2.30471e-21
1.62465e-05
3.24446e-21
1.62465e-05
7.7349e-21
1.62465e-05
8.75707e-21
1.62465e-05
9.29622e-21
1.62465e-05
8.90562e-21
1.62465e-05
7.60259e-21
1.62465e-05
4.81077e-21
1.85825e-21
1.87462e-05
-3.24867e-21
1.87462e-05
-4.92983e-21
1.87462e-05
-9.02223e-21
1.87462e-05
-7.21059e-21
1.87462e-05
-8.34413e-21
1.87462e-05
-8.42121e-21
1.87462e-05
-6.54653e-21
1.87462e-05
-2.00444e-21
1.87462e-05
-2.20552e-22
1.87462e-05
-1.92303e-21
1.87462e-05
-8.62724e-22
1.87462e-05
2.62694e-21
1.87462e-05
6.64718e-21
1.87462e-05
9.18494e-21
1.87462e-05
1.15834e-20
1.87462e-05
1.20981e-20
1.87462e-05
7.94846e-21
1.87462e-05
7.62731e-21
1.87462e-05
4.57093e-21
7.48276e-22
2.1246e-05
1.79973e-21
2.1246e-05
-5.31555e-21
2.1246e-05
-7.13475e-21
2.1246e-05
-1.03307e-20
2.1246e-05
-1.25194e-20
2.1246e-05
-8.50658e-21
2.1246e-05
-7.27285e-21
2.1246e-05
-3.2258e-21
2.1246e-05
-9.05039e-22
2.1246e-05
8.46431e-22
2.1246e-05
1.04902e-21
2.1246e-05
2.38918e-21
2.1246e-05
6.17367e-21
2.1246e-05
8.74898e-21
2.1246e-05
1.04052e-20
2.1246e-05
1.03673e-20
2.1246e-05
9.08418e-21
2.1246e-05
6.11514e-21
2.1246e-05
3.6832e-21
5.65341e-21
2.37459e-05
1.71055e-21
2.37459e-05
-1.39353e-21
2.37459e-05
-6.01247e-21
2.37459e-05
-1.13886e-20
2.37459e-05
-1.20367e-20
2.37459e-05
-1.08336e-20
2.37459e-05
-9.21719e-21
2.37459e-05
-3.42205e-21
2.37459e-05
-1.12872e-21
2.37459e-05
9.22016e-22
2.37459e-05
3.91748e-21
2.37459e-05
5.19648e-21
2.37459e-05
5.88548e-21
2.37459e-05
8.03307e-21
2.37459e-05
9.37866e-21
2.37459e-05
1.22727e-20
2.37459e-05
1.13619e-20
2.37459e-05
4.94433e-21
2.37459e-05
4.34586e-21
3.72784e-21
2.62459e-05
-2.30976e-22
2.62459e-05
-3.40999e-21
2.62459e-05
-4.06385e-21
2.62459e-05
-8.60384e-21
2.62459e-05
-7.14594e-21
2.62459e-05
-8.28335e-21
2.62459e-05
-6.47622e-21
2.62459e-05
-7.16849e-21
2.62459e-05
-3.44944e-21
2.62459e-05
5.4643e-22
2.62459e-05
8.78885e-22
2.62459e-05
6.81667e-21
2.62459e-05
9.4919e-21
2.62459e-05
9.73557e-21
2.62459e-05
9.56321e-21
2.62459e-05
1.03168e-20
2.62459e-05
9.13387e-21
2.62459e-05
4.73976e-21
2.62459e-05
5.97266e-21
5.459e-21
2.8746e-05
-2.36759e-21
2.8746e-05
-6.74194e-22
2.8746e-05
-6.08244e-21
2.8746e-05
-6.38004e-21
2.8746e-05
-6.12189e-21
2.8746e-05
-6.96471e-21
2.8746e-05
-4.92496e-21
2.8746e-05
-5.42637e-21
2.8746e-05
-5.38075e-21
2.8746e-05
-4.45021e-21
2.8746e-05
3.33113e-21
2.8746e-05
9.36209e-21
2.8746e-05
1.48748e-20
2.8746e-05
1.23531e-20
2.8746e-05
1.42078e-20
2.8746e-05
7.55137e-21
2.8746e-05
4.02995e-21
2.8746e-05
6.2963e-21
2.8746e-05
4.06319e-21
-2.82685e-21
3.12462e-05
-2.55027e-21
3.12462e-05
-1.40911e-21
3.12462e-05
-5.73221e-21
3.12462e-05
-7.14092e-21
3.12462e-05
-7.13051e-21
3.12462e-05
-1.01095e-20
3.12462e-05
-9.28228e-21
3.12462e-05
-4.11356e-21
3.12462e-05
-2.95516e-21
3.12462e-05
2.63279e-21
3.12462e-05
7.20301e-21
3.12462e-05
1.53513e-20
3.12462e-05
1.88375e-20
3.12462e-05
1.99654e-20
3.12462e-05
1.42172e-20
3.12462e-05
9.63279e-21
3.12462e-05
5.56142e-21
3.12462e-05
3.90145e-21
3.12462e-05
-2.39373e-21
-7.04933e-21
3.37465e-05
-5.72458e-21
3.37465e-05
-3.68208e-21
3.37465e-05
-6.51482e-21
3.37465e-05
-9.79885e-21
3.37465e-05
-1.03185e-20
3.37465e-05
-8.22411e-21
3.37465e-05
-7.68648e-21
3.37465e-05
-4.98655e-21
3.37465e-05
-3.51904e-21
3.37465e-05
4.06887e-21
3.37465e-05
1.16443e-20
3.37465e-05
1.39059e-20
3.37465e-05
1.95807e-20
3.37465e-05
2.1211e-20
3.37465e-05
1.76323e-20
3.37465e-05
1.12927e-20
3.37465e-05
6.8774e-21
3.37465e-05
2.55199e-21
3.37465e-05
-1.08677e-21
-5.98075e-21
3.62468e-05
-8.09916e-21
3.62468e-05
-7.21638e-21
3.62468e-05
-7.64434e-22
3.62468e-05
-3.39639e-21
3.62468e-05
-8.90091e-21
3.62468e-05
-1.05621e-20
3.62468e-05
-1.09685e-20
3.62468e-05
-1.38952e-20
3.62468e-05
-2.79677e-21
3.62468e-05
4.24971e-21
3.62468e-05
1.12769e-20
3.62468e-05
1.842e-20
3.62468e-05
1.98789e-20
3.62468e-05
1.69542e-20
3.62468e-05
1.49754e-20
3.62468e-05
1.02897e-20
3.62468e-05
3.54221e-21
3.62468e-05
2.57303e-21
3.62468e-05
-2.07745e-21
-1.84012e-21
3.87473e-05
-4.72655e-22
3.87473e-05
-2.97671e-21
3.87473e-05
-2.95705e-21
3.87473e-05
2.68796e-21
3.87473e-05
-2.23192e-21
3.87473e-05
-1.24414e-20
3.87473e-05
-1.34869e-20
3.87473e-05
-1.06943e-20
3.87473e-05
-2.6137e-21
3.87473e-05
2.83807e-21
3.87473e-05
8.31145e-21
3.87473e-05
1.17964e-20
3.87473e-05
1.39017e-20
3.87473e-05
1.64931e-20
3.87473e-05
1.24261e-20
3.87473e-05
5.3213e-21
3.87473e-05
3.57251e-21
3.87473e-05
-5.02106e-21
3.87473e-05
-3.37066e-21
-2.18678e-21
4.12478e-05
-1.86745e-21
4.12478e-05
-2.13691e-21
4.12478e-05
-3.63541e-22
4.12478e-05
-9.56212e-22
4.12478e-05
-2.23179e-21
4.12478e-05
-2.80808e-21
4.12478e-05
-9.17953e-21
4.12478e-05
-7.06742e-21
4.12478e-05
-5.12749e-21
4.12478e-05
2.61506e-22
4.12478e-05
5.8808e-21
4.12478e-05
6.11576e-21
4.12478e-05
1.28061e-20
4.12478e-05
1.21819e-20
4.12478e-05
6.03118e-21
4.12478e-05
3.21132e-21
4.12478e-05
-1.46103e-21
4.12478e-05
-3.63412e-21
4.12478e-05
-2.33037e-21
-9.43708e-22
4.37484e-05
2.30417e-21
4.37484e-05
2.77229e-21
4.37484e-05
1.35069e-21
4.37484e-05
4.07879e-21
4.37484e-05
4.51206e-23
4.37484e-05
-3.68198e-21
4.37484e-05
-1.04134e-20
4.37484e-05
-1.24565e-20
4.37484e-05
-3.70878e-21
4.37484e-05
2.02987e-21
4.37484e-05
1.18949e-21
4.37484e-05
9.37129e-21
4.37484e-05
1.01973e-20
4.37484e-05
1.22342e-20
4.37484e-05
4.31988e-21
4.37484e-05
-2.25398e-21
4.37484e-05
-5.60358e-21
4.37484e-05
-2.4953e-21
4.37484e-05
-1.58323e-21
-2.90986e-21
4.6249e-05
1.36799e-21
4.6249e-05
-4.78653e-21
4.6249e-05
5.2964e-21
4.6249e-05
1.10547e-20
4.6249e-05
4.25382e-21
4.6249e-05
-3.1682e-21
4.6249e-05
-9.6102e-21
4.6249e-05
-5.06366e-21
4.6249e-05
-5.24089e-21
4.6249e-05
-2.93037e-24
4.6249e-05
1.62101e-21
4.6249e-05
4.90709e-23
4.6249e-05
6.02215e-21
4.6249e-05
3.15178e-21
4.6249e-05
2.66194e-21
4.6249e-05
-4.99402e-22
4.6249e-05
5.37686e-22
4.6249e-05
-4.34137e-21
4.6249e-05
-1.40745e-21
5.53121e-21
4.87497e-05
4.87497e-05
4.87497e-05
4.87497e-05
4.87497e-05
4.87497e-05
4.87497e-05
4.87497e-05
4.87497e-05
4.87497e-05
4.87497e-05
4.87497e-05
4.87497e-05
4.87497e-05
4.87497e-05
4.87497e-05
4.87497e-05
4.87497e-05
4.87497e-05
)
;

boundaryField
{
    movingWall
    {
        type            calculated;
        value           uniform 0;
    }
    fixedWalls
    {
        type            calculated;
        value           uniform 0;
    }
    left
    {
        type            cyclic;
        value           nonuniform List<scalar> 
20
(
-3.87473e-05
-3.62468e-05
-3.37465e-05
-3.12462e-05
-2.8746e-05
-2.62459e-05
-2.37459e-05
-2.1246e-05
-1.87462e-05
-1.62465e-05
-1.37468e-05
-1.12473e-05
-8.74783e-06
-6.24841e-06
-3.74903e-06
-1.24967e-06
-4.12478e-05
-4.37484e-05
-4.6249e-05
-4.87497e-05
)
;
    }
    right
    {
        type            cyclic;
        value           nonuniform List<scalar> 
20
(
3.87473e-05
3.62468e-05
3.37465e-05
3.12462e-05
2.8746e-05
2.62459e-05
2.37459e-05
2.1246e-05
1.87462e-05
1.62465e-05
1.37468e-05
1.12473e-05
8.74783e-06
6.24841e-06
3.74903e-06
1.24967e-06
4.12478e-05
4.37484e-05
4.6249e-05
4.87497e-05
)
;
    }
    frontAndBack
    {
        type            empty;
        value           nonuniform List<scalar> 0();
    }
}


// ************************************************************************* //
