/*--------------------------------*- C++ -*----------------------------------*\
  =========                 |
  \\      /  F ield         | OpenFOAM: The Open Source CFD Toolbox
   \\    /   O peration     | Website:  https://openfoam.org
    \\  /    A nd           | Version:  8
     \\/     M anipulation  |
\*---------------------------------------------------------------------------*/
FoamFile
{
    version     2.0;
    format      ascii;
    class       volVectorField;
    location    "1.27";
    object      U;
}
// * * * * * * * * * * * * * * * * * * * * * * * * * * * * * * * * * * * * * //

dimensions      [0 1 -1 0 0 0 0];

internalField   nonuniform List<vector> 
400
(
(0.024988 -7.43258e-14 0)
(0.024988 -2.27187e-13 0)
(0.024988 -3.38324e-13 0)
(0.024988 -4.06727e-13 0)
(0.024988 -4.02256e-13 0)
(0.024988 -3.86345e-13 0)
(0.024988 -3.23816e-13 0)
(0.024988 -2.29915e-13 0)
(0.024988 -9.84579e-14 0)
(0.024988 4.12294e-14 0)
(0.024988 1.73388e-13 0)
(0.024988 2.90461e-13 0)
(0.024988 3.68196e-13 0)
(0.024988 4.28882e-13 0)
(0.024988 4.37551e-13 0)
(0.024988 4.28037e-13 0)
(0.024988 3.56635e-13 0)
(0.024988 2.60027e-13 0)
(0.024988 1.20851e-13 0)
(0.024988 4.60835e-15 0)
(0.0749643 -3.2021e-12 0)
(0.0749643 -3.62904e-12 0)
(0.0749643 -3.74629e-12 0)
(0.0749643 -3.43372e-12 0)
(0.0749643 -2.81056e-12 0)
(0.0749643 -1.91822e-12 0)
(0.0749643 -8.80149e-13 0)
(0.0749643 2.50579e-13 0)
(0.0749643 1.34211e-12 0)
(0.0749643 2.31082e-12 0)
(0.0749643 3.0617e-12 0)
(0.0749643 3.51845e-12 0)
(0.0749643 3.65529e-12 0)
(0.0749643 3.43197e-12 0)
(0.0749643 2.89986e-12 0)
(0.0749643 2.06144e-12 0)
(0.0749643 1.02353e-12 0)
(0.0749643 -1.61369e-13 0)
(0.0749643 -1.36681e-12 0)
(0.0749643 -2.38815e-12 0)
(0.124942 -1.11266e-11 0)
(0.124942 -1.19508e-11 0)
(0.124942 -1.15606e-11 0)
(0.124942 -9.97641e-12 0)
(0.124942 -7.43917e-12 0)
(0.124942 -4.24673e-12 0)
(0.124942 -6.75318e-13 0)
(0.124942 2.91524e-12 0)
(0.124942 6.21731e-12 0)
(0.124942 8.91212e-12 0)
(0.124942 1.07639e-11 0)
(0.124942 1.16036e-11 0)
(0.124942 1.13389e-11 0)
(0.124942 1.00052e-11 0)
(0.124942 7.69042e-12 0)
(0.124942 4.62802e-12 0)
(0.124942 1.05624e-12 0)
(0.124942 -2.66929e-12 0)
(0.124942 -6.21867e-12 0)
(0.124942 -9.15062e-12 0)
(0.17492 -2.29674e-11 0)
(0.17492 -2.39325e-11 0)
(0.17492 -2.24087e-11 0)
(0.17492 -1.86692e-11 0)
(0.17492 -1.31341e-11 0)
(0.17492 -6.3689e-12 0)
(0.17492 9.25121e-13 0)
(0.17492 8.08102e-12 0)
(0.17492 1.44104e-11 0)
(0.17492 1.93498e-11 0)
(0.17492 2.24382e-11 0)
(0.17492 2.33915e-11 0)
(0.17492 2.21161e-11 0)
(0.17492 1.8708e-11 0)
(0.17492 1.3486e-11 0)
(0.17492 6.91586e-12 0)
(0.17492 -3.73773e-13 0)
(0.17492 -7.72362e-12 0)
(0.17492 -1.43817e-11 0)
(0.17492 -1.96851e-11 0)
(0.224901 -3.62536e-11 0)
(0.224901 -3.69957e-11 0)
(0.224901 -3.39904e-11 0)
(0.224901 -2.76132e-11 0)
(0.224901 -1.85441e-11 0)
(0.224901 -7.74294e-12 0)
(0.224901 3.73308e-12 0)
(0.224901 1.47706e-11 0)
(0.224901 2.43389e-11 0)
(0.224901 3.15348e-11 0)
(0.224901 3.56966e-11 0)
(0.224901 3.64261e-11 0)
(0.224901 3.36534e-11 0)
(0.224901 2.76253e-11 0)
(0.224901 1.88993e-11 0)
(0.224901 8.30015e-12 0)
(0.224901 -3.1649e-12 0)
(0.224901 -1.44039e-11 0)
(0.224901 -2.43084e-11 0)
(0.224901 -3.18731e-11 0)
(0.274884 -4.80436e-11 0)
(0.274884 -4.83091e-11 0)
(0.274884 -4.37537e-11 0)
(0.274884 -3.48585e-11 0)
(0.274884 -2.25614e-11 0)
(0.274884 -8.12107e-12 0)
(0.274884 7.0453e-12 0)
(0.274884 2.1462e-11 0)
(0.274884 3.37428e-11 0)
(0.274884 4.27289e-11 0)
(0.274884 4.75644e-11 0)
(0.274884 4.7806e-11 0)
(0.274884 4.34207e-11 0)
(0.274884 3.48288e-11 0)
(0.274884 2.28308e-11 0)
(0.274884 8.58362e-12 0)
(0.274884 -6.55399e-12 0)
(0.274884 -2.11215e-11 0)
(0.274884 -3.36893e-11 0)
(0.274884 -4.29837e-11 0)
(0.32487 -5.55791e-11 0)
(0.32487 -5.52339e-11 0)
(0.32487 -4.94335e-11 0)
(0.32487 -3.87272e-11 0)
(0.32487 -2.42454e-11 0)
(0.32487 -7.41814e-12 0)
(0.32487 1.00865e-11 0)
(0.32487 2.65564e-11 0)
(0.32487 4.03898e-11 0)
(0.32487 5.02585e-11 0)
(0.32487 5.52309e-11 0)
(0.32487 5.48328e-11 0)
(0.32487 4.91267e-11 0)
(0.32487 3.86399e-11 0)
(0.32487 2.43919e-11 0)
(0.32487 7.7387e-12 0)
(0.32487 -9.69974e-12 0)
(0.32487 -2.62504e-11 0)
(0.32487 -4.02913e-11 0)
(0.32487 -5.04004e-11 0)
(0.374859 -5.70543e-11 0)
(0.374859 -5.60615e-11 0)
(0.374859 -4.95237e-11 0)
(0.374859 -3.81172e-11 0)
(0.374859 -2.29606e-11 0)
(0.374859 -5.57555e-12 0)
(0.374859 1.23457e-11 0)
(0.374859 2.90125e-11 0)
(0.374859 4.28053e-11 0)
(0.374859 5.23884e-11 0)
(0.374859 5.68411e-11 0)
(0.374859 5.57638e-11 0)
(0.374859 4.92594e-11 0)
(0.374859 3.79821e-11 0)
(0.374859 2.29938e-11 0)
(0.374859 5.76558e-12 0)
(0.374859 -1.20651e-11 0)
(0.374859 -2.875e-11 0)
(0.374859 -4.26701e-11 0)
(0.374859 -5.24327e-11 0)
(0.424852 -5.21423e-11 0)
(0.424852 -5.04319e-11 0)
(0.424852 -4.37618e-11 0)
(0.424852 -3.27836e-11 0)
(0.424852 -1.85938e-11 0)
(0.424852 -2.55863e-12 0)
(0.424852 1.37126e-11 0)
(0.424852 2.8619e-11 0)
(0.424852 4.06863e-11 0)
(0.424852 4.87462e-11 0)
(0.424852 5.20297e-11 0)
(0.424852 5.02242e-11 0)
(0.424852 4.3542e-11 0)
(0.424852 3.26187e-11 0)
(0.424852 1.85413e-11 0)
(0.424852 2.64142e-12 0)
(0.424852 -1.35297e-11 0)
(0.424852 -2.84184e-11 0)
(0.424852 -4.0548e-11 0)
(0.424852 -4.8732e-11 0)
(0.474848 -4.19584e-11 0)
(0.474848 -3.94834e-11 0)
(0.474848 -3.3119e-11 0)
(0.474848 -2.35238e-11 0)
(0.474848 -1.15922e-11 0)
(0.474848 1.48285e-12 0)
(0.474848 1.44263e-11 0)
(0.474848 2.59278e-11 0)
(0.474848 3.48702e-11 0)
(0.474848 4.03781e-11 0)
(0.474848 4.19176e-11 0)
(0.474848 3.93624e-11 0)
(0.474848 3.29582e-11 0)
(0.474848 2.33661e-11 0)
(0.474848 1.15e-11 0)
(0.474848 -1.46994e-12 0)
(0.474848 -1.43263e-11 0)
(0.474848 -2.57968e-11 0)
(0.474848 -3.47596e-11 0)
(0.474848 -4.0337e-11 0)
(0.524848 -2.87689e-11 0)
(0.524848 -2.54657e-11 0)
(0.524848 -1.96896e-11 0)
(0.524848 -1.19718e-11 0)
(0.524848 -3.07738e-12 0)
(0.524848 6.15422e-12 0)
(0.524848 1.47769e-11 0)
(0.524848 2.19492e-11 0)
(0.524848 2.69557e-11 0)
(0.524848 2.93121e-11 0)
(0.524848 2.87936e-11 0)
(0.524848 2.54423e-11 0)
(0.524848 1.96111e-11 0)
(0.524848 1.18612e-11 0)
(0.524848 2.98575e-12 0)
(0.524848 -6.18528e-12 0)
(0.524848 -1.47503e-11 0)
(0.524848 -2.18904e-11 0)
(0.524848 -2.68855e-11 0)
(0.524848 -2.92552e-11 0)
(0.574852 -1.52874e-11 0)
(0.574852 -1.12308e-11 0)
(0.574852 -6.09104e-12 0)
(0.574852 -3.63822e-13 0)
(0.574852 5.42347e-12 0)
(0.574852 1.06898e-11 0)
(0.574852 1.49254e-11 0)
(0.574852 1.76935e-11 0)
(0.574852 1.8733e-11 0)
(0.574852 1.79379e-11 0)
(0.574852 1.53771e-11 0)
(0.574852 1.13051e-11 0)
(0.574852 6.10401e-12 0)
(0.574852 3.15952e-13 0)
(0.574852 -5.50019e-12 0)
(0.574852 -1.0759e-11 0)
(0.574852 -1.49727e-11 0)
(0.574852 -1.77056e-11 0)
(0.574852 -1.87023e-11 0)
(0.574852 -1.78658e-11 0)
(0.624859 -3.99417e-12 0)
(0.624859 6.04457e-13 0)
(0.624859 5.1078e-12 0)
(0.624859 9.119e-12 0)
(0.624859 1.22333e-11 0)
(0.624859 1.41757e-11 0)
(0.624859 1.47322e-11 0)
(0.624859 1.38645e-11 0)
(0.624859 1.16482e-11 0)
(0.624859 8.29803e-12 0)
(0.624859 4.13394e-12 0)
(0.624859 -4.58331e-13 0)
(0.624859 -5.02106e-12 0)
(0.624859 -9.11272e-12 0)
(0.624859 -1.22974e-11 0)
(0.624859 -1.42811e-11 0)
(0.624859 -1.48466e-11 0)
(0.624859 -1.39395e-11 0)
(0.624859 -1.16499e-11 0)
(0.624859 -8.21752e-12 0)
(0.67487 3.54192e-12 0)
(0.67487 8.26089e-12 0)
(0.67487 1.21539e-11 0)
(0.67487 1.48432e-11 0)
(0.67487 1.60848e-11 0)
(0.67487 1.57522e-11 0)
(0.67487 1.38962e-11 0)
(0.67487 1.06959e-11 0)
(0.67487 6.47146e-12 0)
(0.67487 1.62316e-12 0)
(0.67487 -3.39032e-12 0)
(0.67487 -8.08932e-12 0)
(0.67487 -1.20291e-11 0)
(0.67487 -1.48021e-11 0)
(0.67487 -1.61349e-11 0)
(0.67487 -1.58765e-11 0)
(0.67487 -1.40519e-11 0)
(0.67487 -1.08141e-11 0)
(0.67487 -6.50195e-12 0)
(0.67487 -1.55391e-12 0)
(0.724884 6.93142e-12 0)
(0.724884 1.12637e-11 0)
(0.724884 1.44763e-11 0)
(0.724884 1.62624e-11 0)
(0.724884 1.64426e-11 0)
(0.724884 1.5014e-11 0)
(0.724884 1.21221e-11 0)
(0.724884 8.07207e-12 0)
(0.724884 3.25238e-12 0)
(0.724884 -1.87135e-12 0)
(0.724884 -6.81713e-12 0)
(0.724884 -1.11166e-11 0)
(0.724884 -1.43516e-11 0)
(0.724884 -1.62028e-11 0)
(0.724884 -1.64697e-11 0)
(0.724884 -1.51264e-11 0)
(0.724884 -1.22796e-11 0)
(0.724884 -8.20667e-12 0)
(0.724884 -3.31143e-12 0)
(0.724884 1.90329e-12 0)
(0.774901 6.91774e-12 0)
(0.774901 1.03758e-11 0)
(0.774901 1.28134e-11 0)
(0.774901 1.39811e-11 0)
(0.774901 1.37637e-11 0)
(0.774901 1.21813e-11 0)
(0.774901 9.41559e-12 0)
(0.774901 5.74709e-12 0)
(0.774901 1.54378e-12 0)
(0.774901 -2.80108e-12 0)
(0.774901 -6.87129e-12 0)
(0.774901 -1.0287e-11 0)
(0.774901 -1.27139e-11 0)
(0.774901 -1.39106e-11 0)
(0.774901 -1.37538e-11 0)
(0.774901 -1.22477e-11 0)
(0.774901 -9.53408e-12 0)
(0.774901 -5.86724e-12 0)
(0.774901 -1.62409e-12 0)
(0.774901 2.7852e-12 0)
(0.82492 4.93356e-12 0)
(0.82492 7.22397e-12 0)
(0.82492 8.82225e-12 0)
(0.82492 9.53962e-12 0)
(0.82492 9.30134e-12 0)
(0.82492 8.13037e-12 0)
(0.82492 6.16135e-12 0)
(0.82492 3.60776e-12 0)
(0.82492 7.16623e-13 0)
(0.82492 -2.22603e-12 0)
(0.82492 -4.95542e-12 0)
(0.82492 -7.2014e-12 0)
(0.82492 -8.7585e-12 0)
(0.82492 -9.46337e-12 0)
(0.82492 -9.25271e-12 0)
(0.82492 -8.13807e-12 0)
(0.82492 -6.22168e-12 0)
(0.82492 -3.69321e-12 0)
(0.82492 -8.01659e-13 0)
(0.82492 2.16496e-12 0)
(0.874942 2.50976e-12 0)
(0.874942 3.66659e-12 0)
(0.874942 4.46875e-12 0)
(0.874942 4.83661e-12 0)
(0.874942 4.70064e-12 0)
(0.874942 4.08576e-12 0)
(0.874942 3.06332e-12 0)
(0.874942 1.7466e-12 0)
(0.874942 2.78425e-13 0)
(0.874942 -1.20998e-12 0)
(0.874942 -2.56496e-12 0)
(0.874942 -3.67929e-12 0)
(0.874942 -4.43129e-12 0)
(0.874942 -4.76403e-12 0)
(0.874942 -4.63025e-12 0)
(0.874942 -4.04864e-12 0)
(0.874942 -3.06965e-12 0)
(0.874942 -1.79305e-12 0)
(0.874942 -3.52144e-13 0)
(0.874942 1.13022e-12 0)
(0.924964 7.6391e-13 0)
(0.924964 1.10361e-12 0)
(0.924964 1.35508e-12 0)
(0.924964 1.46171e-12 0)
(0.924964 1.41933e-12 0)
(0.924964 1.2184e-12 0)
(0.924964 8.92817e-13 0)
(0.924964 4.82952e-13 0)
(0.924964 3.039e-14 0)
(0.924964 -4.05717e-13 0)
(0.924964 -8.0317e-13 0)
(0.924964 -1.11133e-12 0)
(0.924964 -1.32729e-12 0)
(0.924964 -1.40837e-12 0)
(0.924964 -1.36074e-12 0)
(0.924964 -1.17324e-12 0)
(0.924964 -8.72109e-13 0)
(0.924964 -4.92093e-13 0)
(0.924964 -6.97738e-14 0)
(0.924964 3.56588e-13 0)
(0.974988 4.4991e-14 0)
(0.974988 7.41734e-14 0)
(0.974988 8.85976e-14 0)
(0.974988 1.016e-13 0)
(0.974988 9.31112e-14 0)
(0.974988 7.4095e-14 0)
(0.974988 3.91245e-14 0)
(0.974988 -2.15657e-15 0)
(0.974988 -3.5919e-14 0)
(0.974988 -6.43109e-14 0)
(0.974988 -7.22563e-14 0)
(0.974988 -8.29748e-14 0)
(0.974988 -8.33178e-14 0)
(0.974988 -9.00207e-14 0)
(0.974988 -8.09769e-14 0)
(0.974988 -6.42322e-14 0)
(0.974988 -3.55705e-14 0)
(0.974988 -8.99214e-15 0)
(0.974988 6.73854e-15 0)
(0.974988 2.73777e-14 0)
)
;

boundaryField
{
    movingWall
    {
        type            fixedValue;
        value           uniform (1 0 0);
    }
    fixedWalls
    {
        type            noSlip;
    }
    left
    {
        type            cyclic;
    }
    right
    {
        type            cyclic;
    }
    frontAndBack
    {
        type            empty;
    }
}


// ************************************************************************* //
