/*--------------------------------*- C++ -*----------------------------------*\
  =========                 |
  \\      /  F ield         | OpenFOAM: The Open Source CFD Toolbox
   \\    /   O peration     | Website:  https://openfoam.org
    \\  /    A nd           | Version:  8
     \\/     M anipulation  |
\*---------------------------------------------------------------------------*/
FoamFile
{
    version     2.0;
    format      ascii;
    class       volScalarField;
    location    "1";
    object      T;
}
// * * * * * * * * * * * * * * * * * * * * * * * * * * * * * * * * * * * * * //

dimensions      [0 0 0 1 0 0 0];

internalField   nonuniform List<scalar> 
116
(
6.98977e-16
6.98469e-16
6.98443e-16
6.98442e-16
6.98441e-16
6.98379e-16
6.36841e-14
6.36467e-14
6.36448e-14
6.36447e-14
6.36447e-14
6.36447e-14
5.32412e-12
5.32167e-12
5.32155e-12
5.32154e-12
5.32154e-12
5.32154e-12
3.9947e-10
3.99332e-10
3.99325e-10
3.99324e-10
3.99324e-10
3.99324e-10
2.64848e-08
2.64781e-08
2.64778e-08
2.64778e-08
2.64778e-08
2.64778e-08
1.52041e-06
1.52016e-06
1.52014e-06
1.52014e-06
1.52014e-06
1.52014e-06
7.35112e-05
7.35038e-05
7.35034e-05
7.35034e-05
7.35034e-05
7.35034e-05
0.00287625
0.0028761
0.00287609
0.00287609
0.00287609
0.00287609
0.0855424
0.085541
0.0855409
0.0855409
0.0855409
0.0855409
1.72846
1.72846
1.72846
1.72846
1.72846
1.72846
6.91608e-16
6.91546e-16
6.91546e-16
6.91546e-16
6.36447e-14
6.36447e-14
6.36447e-14
6.36447e-14
5.32154e-12
5.32154e-12
5.32154e-12
5.32154e-12
3.99324e-10
3.99324e-10
3.99324e-10
3.99324e-10
2.64778e-08
2.64778e-08
2.64778e-08
2.64778e-08
1.52014e-06
1.52014e-06
1.52014e-06
1.52014e-06
7.35034e-05
7.35034e-05
7.35034e-05
7.35034e-05
0.00287609
0.00287609
0.00287609
0.00287609
0.0855409
0.0855409
0.0855409
0.0855409
1.72846
1.72846
1.72846
1.72846
4.3701e-24
4.36833e-24
4.36831e-24
4.36876e-24
5.39758e-22
5.39606e-22
5.39606e-22
5.39658e-22
6.29285e-20
6.29178e-20
6.29178e-20
6.29236e-20
6.83327e-18
6.83275e-18
6.83274e-18
6.83334e-18
)
;

boundaryField
{
    movingWall
    {
        type            fixedValue;
        value           uniform 10;
    }
    fixedWalls
    {
        type            zeroGradient;
    }
    frontAndBack
    {
        type            empty;
    }
}


// ************************************************************************* //
