/*--------------------------------*- C++ -*----------------------------------*\
  =========                 |
  \\      /  F ield         | OpenFOAM: The Open Source CFD Toolbox
   \\    /   O peration     | Website:  https://openfoam.org
    \\  /    A nd           | Version:  8
     \\/     M anipulation  |
\*---------------------------------------------------------------------------*/
FoamFile
{
    version     2.0;
    format      ascii;
    class       volScalarField;
    location    "44.5";
    object      p;
}
// * * * * * * * * * * * * * * * * * * * * * * * * * * * * * * * * * * * * * //

dimensions      [0 2 -2 0 0 0 0];

internalField   nonuniform List<scalar> 
116
(
1.81674e-07
-0.000976876
-0.0014297
-0.00309453
0.00117158
-0.00843473
6.47162e-05
-0.000650465
-0.000278918
-0.00364091
-0.00148931
-0.00295986
0.000843857
-3.53813e-05
-0.000356678
-0.00288128
-0.00552253
-0.00813148
0.00149988
0.000950673
-0.000192909
-0.00325782
-0.00738316
-0.00908282
0.00165787
0.00110158
-0.000586848
-0.00426062
-0.00924266
-0.0109732
0.000971128
0.000715529
-0.000957128
-0.00418304
-0.00893384
-0.0107169
0.00116423
0.000725033
-0.000595406
-0.00362182
-0.00802784
-0.0106753
0.000173173
0.000923845
0.000395282
-0.00148596
-0.00457886
-0.00675565
0.00157377
0.000837056
0.00205813
0.000394267
-0.00240945
-0.00517124
-0.00377382
0.00408631
0.00401922
0.00282329
-0.000459314
-0.00251547
0.00198708
0.0105892
0.00917278
0.0145252
-0.00188605
0.00199665
0.00495305
0.00827161
-0.00856972
-0.0059848
-0.00245884
0.000799542
-0.0101003
-0.00886367
-0.00713619
-0.00394818
-0.0114445
-0.0103772
-0.00965801
-0.00655645
-0.0114093
-0.00988777
-0.00991097
-0.00642301
-0.0113968
-0.00949906
-0.0104274
-0.00312889
-0.00683339
-0.00490815
-0.00404566
0.00656718
-0.00707856
-0.00494411
-0.00306753
0.0142517
-0.00253235
0.00439269
0.0180366
0.0550356
0.0182426
0.01754
0.0173214
0.0207213
0.016247
0.0164818
0.0145101
0.01685
0.0125488
0.0133292
0.0113217
0.0124038
0.00893893
0.0164101
0.00994822
0.0143078
)
;

boundaryField
{
    movingWall
    {
        type            zeroGradient;
    }
    fixedWalls
    {
        type            zeroGradient;
    }
    frontAndBack
    {
        type            empty;
    }
}


// ************************************************************************* //
