/*--------------------------------*- C++ -*----------------------------------*\
  =========                 |
  \\      /  F ield         | OpenFOAM: The Open Source CFD Toolbox
   \\    /   O peration     | Website:  https://openfoam.org
    \\  /    A nd           | Version:  8
     \\/     M anipulation  |
\*---------------------------------------------------------------------------*/
FoamFile
{
    version     2.0;
    format      ascii;
    class       surfaceScalarField;
    location    "44.5";
    object      phi;
}
// * * * * * * * * * * * * * * * * * * * * * * * * * * * * * * * * * * * * * //

dimensions      [0 3 -1 0 0 0 0];

internalField   nonuniform List<scalar> 
208
(
1.76462e-05
-1.76462e-05
3.07923e-05
-1.31462e-05
3.03718e-05
4.20564e-07
6.93448e-06
2.34373e-05
-7.05696e-05
7.75041e-05
7.03046e-05
-0.000140874
2.17055e-06
-1.98167e-05
-1.20814e-05
1.10576e-06
-5.39595e-05
4.22987e-05
-0.00010715
7.66277e-05
-0.000136067
0.000106421
7.09944e-05
-0.000136757
-1.56512e-05
-4.16548e-06
-4.40027e-05
2.94573e-05
-7.71707e-05
7.54666e-05
-0.000105339
0.000104796
-0.00011321
0.000114293
5.62816e-05
-9.84976e-05
-2.15921e-05
1.74266e-05
-4.46783e-05
5.25434e-05
-6.76652e-05
9.84536e-05
-7.9685e-05
0.000116815
-7.28548e-05
0.000107463
3.63281e-05
-5.29013e-05
-1.55272e-05
3.29539e-05
-3.36674e-05
7.06836e-05
-4.4048e-05
0.000108834
-4.32593e-05
0.000116027
-3.21006e-05
9.63038e-05
3.01116e-05
-2.58841e-05
-7.23058e-06
4.01845e-05
-9.77125e-06
7.32242e-05
-7.0825e-06
0.000106145
-3.46318e-06
0.000112407
2.94416e-06
8.98964e-05
3.5242e-05
-2.1862e-06
1.32808e-06
3.88564e-05
2.08916e-06
7.24631e-05
1.21224e-05
9.61123e-05
2.67299e-05
9.77999e-05
4.10911e-05
7.55352e-05
3.73163e-05
3.90168e-05
1.01074e-05
2.8749e-05
2.39452e-05
5.86253e-05
4.87058e-05
7.13516e-05
6.84273e-05
7.80784e-05
8.36695e-05
6.0293e-05
3.96043e-05
8.13815e-05
-3.68139e-05
6.55629e-05
-1.67395e-05
3.85509e-05
1.16822e-05
4.293e-05
4.57065e-05
4.40541e-05
7.17944e-05
3.42051e-05
2.6009e-05
8.53897e-05
6.55629e-05
0.000104114
0.000147044
0.000191098
0.000225303
0.000251312
-0.000115154
9.44565e-05
-0.000120177
-6.66825e-05
-4.6382e-05
-2.08913e-06
-1.89969e-05
-3.60324e-05
-1.16531e-05
-0.000152916
0.000133919
-0.000112099
6.97991e-05
-9.58452e-05
-6.26359e-05
-4.0276e-05
-9.16017e-05
-0.000193192
-6.86588e-05
3.99603e-05
-6.59426e-05
-6.53521e-05
-3.78957e-05
-0.000119649
-0.000231088
-2.91657e-05
1.62247e-05
-2.88888e-05
-6.56291e-05
-2.03996e-05
-0.000128138
-0.000251488
-1.22945e-05
2.63508e-06
-1.52818e-05
-6.26418e-05
-1.45684e-05
-0.000128851
-0.000266056
9.05798e-06
-8.6091e-06
4.00498e-06
-5.75888e-05
-3.4454e-06
-0.000121401
-0.000269501
3.8176e-05
-7.76831e-06
1.68412e-05
-3.6254e-05
1.94012e-06
-0.0001065
-0.000267561
6.92142e-05
4.39891e-06
4.1665e-05
-8.70468e-06
2.67764e-05
-9.16112e-05
-0.000240785
8.32547e-05
6.53396e-06
8.18835e-05
-7.33347e-06
6.79495e-05
-7.76772e-05
-0.000172835
0.000257846
0.000250512
0.000172835
-3.7039e-05
3.7039e-05
-6.17221e-05
2.46831e-05
-6.02255e-05
-1.49661e-06
-6.02255e-05
-3.35656e-05
7.06046e-05
-4.36731e-05
3.47905e-05
-4.52793e-05
1.09632e-07
-0.000105505
-2.14142e-05
9.20188e-05
-1.06249e-05
2.40012e-05
-2.47265e-05
1.42112e-05
-0.000130231
-2.81582e-05
-6.2461e-06
-3.68805e-06
)
;

boundaryField
{
    movingWall
    {
        type            calculated;
        value           uniform 0;
    }
    fixedWalls
    {
        type            calculated;
        value           uniform 0;
    }
    frontAndBack
    {
        type            empty;
        value           nonuniform List<scalar> 0();
    }
}


// ************************************************************************* //
