0 	0 	0 	0
1.57135 	-0.00571129 	0.00568594 	0
3.1427 	-0.0139778 	0.0153941 	0
4.71405 	-0.0206656 	0.0269784 	0
6.28539 	-0.0229334 	0.0409459 	0
7.85674 	-0.0185612 	0.0542934 	0
9.42809 	0.0047186 	0.0558055 	0
10.9994 	0.0441936 	-0.00374047 	0
12.5708 	0.123902 	-0.103877 	0
14.1421 	0.5 	0 	0
