/*--------------------------------*- C++ -*----------------------------------*\
  =========                 |
  \\      /  F ield         | OpenFOAM: The Open Source CFD Toolbox
   \\    /   O peration     | Website:  https://openfoam.org
    \\  /    A nd           | Version:  8
     \\/     M anipulation  |
\*---------------------------------------------------------------------------*/
FoamFile
{
    version     2.0;
    format      ascii;
    class       volScalarField;
    location    "1";
    object      p;
}
// * * * * * * * * * * * * * * * * * * * * * * * * * * * * * * * * * * * * * //

dimensions      [0 2 -2 0 0 0 0];

internalField   nonuniform List<scalar> 
12504
(
-0.0137215
-0.016151
-0.0212045
-0.0289746
-0.0389177
-0.0502272
-0.062426
-0.074905
-0.086748
-0.0972384
-0.10602
-0.112878
-0.117649
-0.120265
-0.120755
-0.119225
-0.115854
-0.110905
-0.104683
-0.0975497
-0.0898478
-0.0818945
-0.0739591
-0.0662556
-0.0589407
-0.0521185
-0.045849
-0.0401568
-0.0350396
-0.0304771
-0.0264359
-0.0228756
-0.0197526
-0.0170225
-0.0146432
-0.0125736
-0.0107759
-0.0092135
-0.00785682
-0.00667699
-0.00564921
-0.00475308
-0.00396478
-0.00327303
-0.00265046
-0.00209684
-0.00158036
-0.00111845
-0.000652101
-0.000251176
-0.0119563
-0.0144658
-0.0196947
-0.0277273
-0.0380124
-0.0497443
-0.062421
-0.0753849
-0.087673
-0.098526
-0.107554
-0.114531
-0.119306
-0.121834
-0.122173
-0.120451
-0.116869
-0.111699
-0.105278
-0.0979551
-0.0900851
-0.0819892
-0.0739382
-0.0661451
-0.0587647
-0.0518981
-0.0456019
-0.0398969
-0.0347778
-0.0302213
-0.0261919
-0.0226472
-0.0195422
-0.0168311
-0.0144707
-0.0124193
-0.0106389
-0.00909286
-0.00775143
-0.00658563
-0.00557073
-0.00468623
-0.00390836
-0.00322605
-0.00261202
-0.00206639
-0.00155713
-0.00110225
-0.000642184
-0.000248101
-0.00836322
-0.0110392
-0.0166188
-0.0251817
-0.0361691
-0.0487615
-0.0624054
-0.0763606
-0.0895662
-0.101165
-0.110696
-0.117913
-0.122689
-0.125032
-0.125056
-0.12294
-0.118926
-0.113319
-0.106476
-0.0987668
-0.0905558
-0.0821718
-0.0738878
-0.0659152
-0.0584041
-0.0514494
-0.0451006
-0.0393715
-0.0342499
-0.0297067
-0.0257018
-0.0221892
-0.0191209
-0.0164481
-0.0141258
-0.0121109
-0.0103652
-0.00885213
-0.00754141
-0.0064038
-0.0054145
-0.00455306
-0.00379594
-0.00313229
-0.00253546
-0.00200552
-0.00151109
-0.0010696
-0.000623098
-0.000240904
-0.00282526
-0.00575525
-0.0118694
-0.021248
-0.0333183
-0.047233
-0.0623707
-0.0778716
-0.092514
-0.105278
-0.115591
-0.123174
-0.12794
-0.129979
-0.129498
-0.12676
-0.122071
-0.115784
-0.10829
-0.0999844
-0.0912506
-0.0824275
-0.0737907
-0.0655481
-0.057842
-0.0507573
-0.0443324
-0.0385701
-0.0334481
-0.0289281
-0.0249629
-0.0215004
-0.0184881
-0.0158737
-0.0136091
-0.0116497
-0.00995685
-0.00849341
-0.00722876
-0.00613325
-0.00518212
-0.00435499
-0.00362874
-0.00299289
-0.00242171
-0.00191508
-0.00144275
-0.00102112
-0.000594859
-0.000230043
0.00484176
0.00156329
-0.00528394
-0.015784
-0.029346
-0.0450891
-0.0623081
-0.0799801
-0.096651
-0.111062
-0.122473
-0.130557
-0.135283
-0.136864
-0.135648
-0.132021
-0.126379
-0.11914
-0.110739
-0.101608
-0.0921557
-0.0827339
-0.0736202
-0.0650163
-0.0570526
-0.0497992
-0.0432785
-0.0374779
-0.0323614
-0.0278781
-0.0239702
-0.020578
-0.0176428
-0.0151079
-0.0129218
-0.0110379
-0.00941637
-0.00801943
-0.00681605
-0.0057764
-0.00487579
-0.004094
-0.00340856
-0.0028095
-0.00227217
-0.00179621
-0.00135296
-0.000957421
-0.000557783
-0.000215741
0.0148896
0.0111586
0.00336163
-0.00859355
-0.024099
-0.0422381
-0.0622074
-0.0827741
-0.102169
-0.118797
-0.131679
-0.140407
-0.145036
-0.145958
-0.143721
-0.138882
-0.131961
-0.123453
-0.113853
-0.103639
-0.0932522
-0.0830596
-0.0733392
-0.064282
-0.056001
-0.048545
-0.0419144
-0.0360762
-0.0309759
-0.0265468
-0.0227176
-0.0194187
-0.0165841
-0.0141517
-0.0120663
-0.0102787
-0.00874736
-0.00743385
-0.00630689
-0.00533662
-0.00449856
-0.00377286
-0.00313792
-0.00258429
-0.00208865
-0.00165039
-0.00124288
-0.000879339
-0.00051235
-0.000198202
0.0276443
0.0233445
0.0143575
0.000574655
-0.0173824
-0.0385646
-0.0620596
-0.0863765
-0.109333
-0.128873
-0.14367
-0.153203
-0.15764
-0.157632
-0.15401
-0.147562
-0.138971
-0.128817
-0.117676
-0.106082
-0.0945169
-0.0833646
-0.0728998
-0.0632966
-0.0546424
-0.0469566
-0.0402098
-0.0343419
-0.0292749
-0.0249227
-0.0211983
-0.0180197
-0.0153121
-0.0130074
-0.0110462
-0.00937634
-0.00795445
-0.00674139
-0.00570585
-0.00481816
-0.00405435
-0.00339514
-0.00281997
-0.00231999
-0.00187347
-0.0014795
-0.00111392
-0.0007879
-0.000459168
-0.000177668
0.0435144
0.0385133
0.028066
0.0120318
-0.00895765
-0.0339324
-0.0618679
-0.0909644
-0.118507
-0.141817
-0.159077
-0.169591
-0.17369
-0.172389
-0.166917
-0.158368
-0.147626
-0.135367
-0.122272
-0.108947
-0.0959222
-0.0835993
-0.0722431
-0.0620007
-0.0529226
-0.0449879
-0.0381281
-0.0322477
-0.0272397
-0.0229942
-0.0194061
-0.016379
-0.0138281
-0.0116786
-0.0098665
-0.00833648
-0.0070435
-0.00594789
-0.00501855
-0.00422632
-0.00354801
-0.00296517
-0.00245852
-0.00201991
-0.00162938
-0.00128578
-0.000967782
-0.00068433
-0.000398959
-0.000154417
0.063001
0.0571455
0.0449311
0.0261546
0.0014568
-0.0281956
-0.0616693
-0.0968037
-0.13021
-0.158369
-0.178764
-0.19045
-0.19399
-0.190914
-0.182995
-0.171726
-0.158196
-0.143299
-0.127742
-0.112255
-0.0974374
-0.0837033
-0.071297
-0.0603226
-0.0507774
-0.0425855
-0.0356275
-0.0297637
-0.0248504
-0.0207501
-0.0173362
-0.0144967
-0.0121355
-0.0101708
-0.00853379
-0.00716629
-0.00602184
-0.00506057
-0.00425187
-0.00356746
-0.00298534
-0.00248814
-0.00205812
-0.00168792
-0.00135957
-0.00107179
-0.000806451
-0.000570047
-0.000332531
-0.000128751
0.0867112
0.0798229
0.0654908
0.0433908
0.0141831
-0.0212193
-0.0615764
-0.104317
-0.145207
-0.17959
-0.203955
-0.217004
-0.219648
-0.214157
-0.203033
-0.188297
-0.171234
-0.152926
-0.134239
-0.116047
-0.0990281
-0.0836034
-0.0699744
-0.0581771
-0.0481321
-0.0396893
-0.0326632
-0.0268585
-0.0220879
-0.0181805
-0.014986
-0.0123751
-0.0102402
-0.00849177
-0.00705694
-0.005875
-0.00489862
-0.00408818
-0.00341399
-0.0028491
-0.00237312
-0.00197007
-0.00162396
-0.0013284
-0.00106768
-0.000840488
-0.000632171
-0.00044663
-0.000260785
-0.000101014
0.115372
0.107245
0.0903948
0.0642715
0.0295834
-0.0129143
-0.061855
-0.114214
-0.164685
-0.207062
-0.236439
-0.251023
-0.25226
-0.243491
-0.228201
-0.209047
-0.18741
-0.164704
-0.141998
-0.12039
-0.100659
-0.0832116
-0.0681699
-0.0554631
-0.0449014
-0.0362332
-0.0291878
-0.0235016
-0.0189349
-0.0152789
-0.0123565
-0.0100204
-0.00815118
-0.00665242
-0.00544752
-0.00447419
-0.003685
-0.00304115
-0.00251452
-0.00207997
-0.00171914
-0.00141778
-0.00116187
-0.000946275
-0.000757783
-0.000595155
-0.000447418
-0.000315817
-0.000184728
-7.16006e-05
0.149847
0.140253
0.120429
0.0894366
0.0480717
-0.00327949
-0.0630471
-0.127755
-0.190619
-0.243257
-0.278889
-0.295124
-0.294213
-0.281008
-0.260347
-0.235179
-0.207827
-0.179353
-0.151384
-0.125394
-0.102291
-0.0824222
-0.0657592
-0.0520645
-0.04099
-0.032147
-0.0251544
-0.0196654
-0.015379
-0.0120437
-0.00945357
-0.00744318
-0.00588186
-0.0046673
-0.0037203
-0.00297817
-0.00239436
-0.00193182
-0.00156463
-0.00127006
-0.00103218
-0.000838812
-0.00067829
-0.000546979
-0.000434347
-0.000339346
-0.00025487
-0.000179518
-0.000105489
-4.0951e-05
0.191144
0.179854
0.156549
0.119688
0.0701468
0.00756744
-0.0661114
-0.147143
-0.226495
-0.292374
-0.335506
-0.353169
-0.349037
-0.329955
-0.302672
-0.269799
-0.234419
-0.198016
-0.16295
-0.131225
-0.103881
-0.081102
-0.0625914
-0.0478476
-0.0362945
-0.0273588
-0.0205193
-0.0153283
-0.0114147
-0.00848039
-0.00628995
-0.00466019
-0.00345087
-0.0025554
-0.00189371
-0.0014042
-0.00104257
-0.000774486
-0.000577067
-0.000430531
-0.000321902
-0.000241472
-0.000180275
-0.0001364
-0.000102165
-7.68513e-05
-5.73959e-05
-3.97928e-05
-2.42806e-05
-9.53541e-06
0.240414
0.227254
0.199913
0.156076
0.0964364
0.019364
-0.072626
-0.175942
-0.27823
-0.361904
-0.413733
-0.431355
-0.4219
-0.395118
-0.358478
-0.316546
-0.27015
-0.222467
-0.177464
-0.138066
-0.105353
-0.0790847
-0.0584891
-0.0426622
-0.0307054
-0.0217992
-0.0152459
-0.0104782
-0.00704697
-0.00460468
-0.00288718
-0.00169574
-0.000883055
-0.000340803
9.74772e-06
0.000227135
0.000351924
0.000414528
0.00043395
0.000426324
0.000401147
0.000365246
0.000324607
0.000279205
0.000233703
0.000188319
0.000141961
0.000101192
5.76323e-05
2.21608e-05
0.298932
0.283874
0.251951
0.200044
0.127737
0.0316378
-0.0854351
-0.220215
-0.354732
-0.463506
-0.526239
-0.540409
-0.52089
-0.483868
-0.43667
-0.381274
-0.319375
-0.255508
-0.19624
-0.146246
-0.106589
-0.0761323
-0.0532317
-0.0363452
-0.0241191
-0.0154134
-0.00931556
-0.00512108
-0.00229669
-0.00044587
0.00072177
0.00141672
0.00178947
0.00194675
0.00196312
0.00189187
0.00176811
0.00161704
0.00145278
0.00128713
0.00112559
0.000971763
0.000828385
0.000693284
0.000567955
0.000451972
0.00034004
0.000241203
0.00013896
5.36442e-05
0.368056
0.351335
0.31452
0.253672
0.165217
0.0436417
-0.109937
-0.292813
-0.46958
-0.610345
-0.685557
-0.691477
-0.654322
-0.602427
-0.542348
-0.470025
-0.386065
-0.298807
-0.219785
-0.155823
-0.107415
-0.0719669
-0.0465502
-0.0286978
-0.0164175
-0.00814962
-0.00272271
0.000720172
0.00279772
0.00395121
0.00449107
0.00463343
0.00452662
0.00427144
0.00393498
0.00356278
0.00318263
0.00281312
0.00246252
0.00213759
0.00183943
0.00156808
0.00132279
0.00109906
0.000895115
0.000709795
0.000533615
0.00037797
0.000218391
8.44074e-05
0.44911
0.431357
0.390178
0.320206
0.211394
0.0547684
-0.154813
-0.416336
-0.650973
-0.816477
-0.890751
-0.878047
-0.816254
-0.745886
-0.672347
-0.586397
-0.476776
-0.356207
-0.248596
-0.165918
-0.10695
-0.0660389
-0.0381612
-0.0195975
-0.00757005
-2.98206e-05
0.00448195
0.0069808
0.00816718
0.00851915
0.00835834
0.00789859
0.0072796
0.00659126
0.00588953
0.00520957
0.00456995
0.00398134
0.0034452
0.00296274
0.00253025
0.00214393
0.00179937
0.00148962
0.00120964
0.000957445
0.000719442
0.000509213
0.0002946
0.000113935
0.543032
0.525472
0.482327
0.404732
0.272636
0.0678309
-0.234175
-0.605701
-0.842245
-1.01581
-1.06934
-1.02201
-0.943224
-0.850298
-0.776221
-0.695025
-0.574207
-0.42312
-0.282881
-0.176939
-0.10492
-0.0578234
-0.0276375
-0.00880446
0.0025072
0.0089304
0.0122297
0.0135703
0.0137177
0.0131697
0.0122452
0.0111447
0.00999132
0.00885847
0.00778709
0.00679934
0.00590283
0.00509916
0.00438225
0.00374728
0.00318546
0.00268897
0.00224966
0.0018581
0.00150605
0.00119064
0.000894324
0.000632675
0.000366271
0.000141713
0.649643
0.634471
0.594583
0.514064
0.362282
0.0970902
-0.261053
-0.706765
-1.07373
-1.2305
-1.25436
-1.12503
-0.977648
-0.880397
-0.807419
-0.74013
-0.63086
-0.470216
-0.308584
-0.183207
-0.0990963
-0.0463905
-0.0146076
0.00376989
0.0137548
0.0186019
0.0203681
0.0203388
0.0193142
0.0177871
0.0160549
0.0142921
0.0125968
0.0110203
0.00958481
0.00829727
0.00715296
0.00614353
0.00525489
0.00447588
0.00379253
0.00319299
0.00266538
0.00219784
0.00177904
0.00140524
0.00105517
0.000746173
0.000432138
0.00016725
0.766665
0.757579
0.728462
0.656208
0.499099
0.206286
-0.253093
-0.759999
-1.16354
-0.991293
-0.858896
-0.777722
-0.727019
-0.637298
-0.482136
-0.314534
-0.179143
-0.0873295
-0.0311781
0.000861984
0.0178479
0.0258508
0.0286802
0.028632
0.0270651
0.0247769
0.0222274
0.0196732
0.0172507
0.0150249
0.0130204
0.011238
0.00966775
0.00829183
0.00709154
0.00604464
0.00513361
0.00433938
0.0036462
0.00303864
0.00250249
0.00202359
0.00159735
0.00119907
0.000847669
0.000491023
0.000190088
0.889083
0.890928
0.880623
0.839076
0.688595
0.368086
-0.140847
-0.846161
-0.740959
-0.675907
-0.604024
-0.460883
-0.299239
-0.163476
-0.0695737
-0.01288
0.0178823
0.0326109
0.0381255
0.0386451
0.0366261
0.0334516
0.0298822
0.026322
0.0229726
0.0199232
0.0172011
0.0148012
0.0127018
0.0108757
0.00929175
0.00792121
0.00673394
0.00570637
0.00481468
0.00403949
0.00336213
0.00276623
0.00223511
0.00176338
0.00132337
0.000935315
0.000541865
0.000209814
1.00933
1.02526
1.04569
1.0501
0.929967
0.619042
-0.719684
-0.61662
-0.538045
-0.415835
-0.267104
-0.138426
-0.0476158
0.00680662
0.0349579
0.0468558
0.0496658
0.0478264
0.0438669
0.0391512
0.03438
0.0298895
0.02582
0.0222111
0.0190514
0.0163068
0.0139335
0.0118881
0.010127
0.00861231
0.00730677
0.00618144
0.00520829
0.00436475
0.00362937
0.0029839
0.00240953
0.00190021
0.00142577
0.0010075
0.000583738
0.000226068
1.11592
1.14807
1.20384
1.264
1.19612
0.958639
-0.537951
-0.459693
-0.360954
-0.226999
-0.109513
-0.0249349
0.0254245
0.0502581
0.0592176
0.0594739
0.0555098
0.04985
0.0438092
0.0380203
0.0327521
0.0280879
0.0240217
0.0205078
0.0174864
0.0148949
0.0126757
0.010775
0.00914728
0.00774937
0.00654794
0.00551155
0.0046151
0.00383488
0.00315114
0.00254344
0.00200519
0.00150432
0.00106288
0.000615864
0.00023854
1.19659
1.24292
1.33158
1.44587
1.44895
1.33185
-0.468364
-0.393121
-0.310693
-0.191857
-0.0843129
-0.00607166
0.0401106
0.0618674
0.0683677
0.0666186
0.0610441
0.0541218
0.0471103
0.0405833
0.0347558
0.029667
0.0252766
0.0215133
0.0182981
0.0155546
0.0132148
0.0112177
0.00951211
0.0080508
0.00679727
0.00571767
0.00478513
0.00397435
0.00326455
0.0026342
0.00207632
0.00155754
0.0011004
0.00063763
0.000246991
1.24018
1.29482
1.40326
1.54913
1.62655
-0.373032
-0.354341
-0.280792
-0.171123
-0.0694728
0.00470464
0.0482365
0.0681412
0.0732372
0.0703829
0.0639401
0.0563459
0.048822
0.0419074
0.0357874
0.0304775
0.025919
0.0220268
0.0187117
0.0158902
0.0134887
0.0114423
0.00969701
0.00820345
0.00692348
0.00582195
0.00487112
0.00404484
0.00332182
0.00268
0.00211221
0.0015844
0.00111933
0.000648609
0.000251252
1.24018
1.29483
1.40326
1.54913
1.66313
-0.341518
-0.35434
-0.280791
-0.171123
-0.0694735
0.00470372
0.0482357
0.0681406
0.0732369
0.0703827
0.0639399
0.0563457
0.0488219
0.0419074
0.0357874
0.0304774
0.025919
0.0220267
0.0187117
0.0158902
0.0134887
0.0114423
0.00969695
0.00820343
0.00692348
0.00582198
0.00487116
0.00404487
0.0033218
0.00267994
0.00211215
0.00158437
0.0011193
0.000648584
0.000251239
1.19659
1.24292
1.33159
1.44587
1.55246
-0.392028
-0.393117
-0.310691
-0.191858
-0.0843148
-0.00607423
0.0401083
0.0618658
0.0683668
0.066618
0.0610435
0.0541212
0.0471101
0.0405833
0.0347557
0.0296669
0.0252766
0.0215132
0.018298
0.0155546
0.0132148
0.0112176
0.00951193
0.00805072
0.0067973
0.00571776
0.00478528
0.00397444
0.00326447
0.00263403
0.00207613
0.00155744
0.00110031
0.000637561
0.000246958
1.11592
1.14807
1.20384
1.264
1.32116
1.25361
-0.495409
-0.459684
-0.360949
-0.226999
-0.109516
-0.0249386
0.0254211
0.0502556
0.0592161
0.0594728
0.0555089
0.0498491
0.0438088
0.0380202
0.0327519
0.0280877
0.0240216
0.0205078
0.0174863
0.0148949
0.0126756
0.0107748
0.00914698
0.00774922
0.00654797
0.00551171
0.00461536
0.00383505
0.00315102
0.00254316
0.00200487
0.00150414
0.00106273
0.000615766
0.000238498
1.00933
1.02526
1.04569
1.05011
1.0548
0.891067
-0.580669
-0.538034
-0.415829
-0.267103
-0.138429
-0.0476199
0.00680267
0.034955
0.0468538
0.0496642
0.0478252
0.043866
0.0391508
0.0343799
0.0298892
0.0258198
0.0222111
0.0190514
0.0163067
0.0139335
0.0118879
0.0101266
0.00861189
0.00730655
0.00618147
0.00520851
0.00436513
0.00362963
0.00298376
0.00240914
0.00189975
0.00142549
0.0010073
0.000583624
0.000226027
0.889086
0.890931
0.880626
0.83908
0.797851
0.47819
0.127901
-0.715411
-0.651742
-0.60401
-0.460876
-0.299238
-0.163479
-0.069578
-0.0128842
0.0178789
0.0326084
0.0381237
0.0386438
0.0366251
0.0334512
0.0298821
0.0263218
0.0229724
0.0199233
0.0172011
0.0148011
0.0127017
0.0108754
0.00929126
0.00792073
0.0067337
0.00570642
0.00481497
0.00403996
0.00336244
0.00276604
0.00223462
0.00176282
0.00132303
0.000935072
0.000541748
0.000209784
0.766668
0.757582
0.728465
0.656211
0.499103
0.269956
-0.242411
-0.675074
-0.856055
-0.762966
-0.727004
-0.637284
-0.482128
-0.314533
-0.179146
-0.0873336
-0.0311822
0.00085855
0.0178452
0.0258489
0.0286789
0.0286312
0.0270648
0.0247768
0.0222272
0.0196731
0.0172509
0.015025
0.0130202
0.0112377
0.00966739
0.00829128
0.00709107
0.00604443
0.00513371
0.00433973
0.00364672
0.00303895
0.00250223
0.002023
0.0015967
0.00119868
0.0008474
0.000490916
0.000190072
0.649646
0.634474
0.594586
0.514068
0.362285
0.0970932
-0.26635
-0.803665
-1.11179
-1.14369
-0.980919
-0.876159
-0.807413
-0.740119
-0.630849
-0.47021
-0.308584
-0.18321
-0.0990997
-0.0463938
-0.0146107
0.00376744
0.0137532
0.0186008
0.0203675
0.0203386
0.0193141
0.0177869
0.0160549
0.0142924
0.012597
0.0110201
0.00958444
0.00829683
0.00715242
0.00614312
0.00525475
0.00447603
0.00379292
0.00319353
0.00266565
0.00219748
0.00177835
0.00140453
0.00105476
0.000745902
0.000432056
0.000167251
0.543035
0.525475
0.48233
0.404735
0.27264
0.0678341
-0.234171
-0.605695
-0.958641
-1.16627
-1.1843
-1.08345
-0.943229
-0.850297
-0.776217
-0.695018
-0.574199
-0.423115
-0.28288
-0.176941
-0.104922
-0.0578256
-0.0276398
-0.00880636
0.00250602
0.00892963
0.0122292
0.0135702
0.0137176
0.0131696
0.0122454
0.0111451
0.00999143
0.00885814
0.00778663
0.0067989
0.0059024
0.00509888
0.00438219
0.00374746
0.00318585
0.00268949
0.00224985
0.00185764
0.00150527
0.00118988
0.000893916
0.000632418
0.000366228
0.000141735
0.449113
0.43136
0.390182
0.320209
0.211397
0.0547718
-0.154809
-0.416331
-0.650965
-0.81647
-0.890748
-0.878048
-0.816256
-0.745885
-0.672343
-0.586391
-0.47677
-0.356204
-0.248596
-0.165919
-0.106951
-0.0660401
-0.0381627
-0.0195988
-0.0075708
-3.03313e-05
0.00448164
0.00698082
0.00816722
0.00851909
0.00835859
0.00789903
0.00727962
0.00659079
0.00588902
0.00520923
0.00456972
0.00398125
0.00344522
0.00296293
0.00253062
0.00214439
0.00179946
0.00148904
0.0012088
0.000956651
0.000719032
0.00050898
0.000294607
0.00011398
0.368059
0.351339
0.314524
0.253675
0.165221
0.0436451
-0.109934
-0.292808
-0.469573
-0.610339
-0.685553
-0.691476
-0.654323
-0.602426
-0.542345
-0.47002
-0.386061
-0.298805
-0.219784
-0.155822
-0.107415
-0.0719673
-0.0465511
-0.0286986
-0.0164179
-0.00814991
-0.00272279
0.000720365
0.00279785
0.00395124
0.00449139
0.00463382
0.00452647
0.00427081
0.00393446
0.00356261
0.00318265
0.00281326
0.00246265
0.00213779
0.00183976
0.00156845
0.00132276
0.00109838
0.000894219
0.000708965
0.000533195
0.000377756
0.000218445
8.44753e-05
0.298936
0.283878
0.251955
0.200047
0.127741
0.0316414
-0.0854308
-0.220209
-0.354725
-0.463501
-0.526236
-0.540408
-0.52089
-0.483867
-0.436667
-0.381271
-0.319372
-0.255506
-0.196238
-0.146245
-0.106588
-0.0761321
-0.0532322
-0.0363458
-0.0241193
-0.0154133
-0.00931532
-0.00512067
-0.00229648
-0.000445812
0.000722038
0.00141692
0.00178906
0.00194598
0.00196267
0.00189194
0.00176842
0.0016174
0.00145304
0.00128738
0.0011259
0.000972035
0.000828225
0.000692501
0.000567013
0.000451111
0.000339607
0.000241001
0.00013905
5.37265e-05
0.240418
0.227258
0.199917
0.15608
0.09644
0.0193678
-0.0726215
-0.175936
-0.278225
-0.361899
-0.41373
-0.431354
-0.4219
-0.395117
-0.358476
-0.316544
-0.270148
-0.222466
-0.177463
-0.138065
-0.105352
-0.0790843
-0.0584895
-0.0426625
-0.0307052
-0.0217986
-0.0152453
-0.0104776
-0.0070467
-0.00460466
-0.00288709
-0.00169587
-0.000883799
-0.000341676
9.47515e-06
0.000227525
0.000352531
0.000415061
0.00043429
0.000426629
0.000401464
0.000365432
0.000324311
0.000278311
0.000232715
0.000187433
0.000141521
0.00010101
5.77515e-05
2.22499e-05
0.191148
0.179858
0.156553
0.119692
0.0701506
0.00757148
-0.0661069
-0.147138
-0.22649
-0.29237
-0.335503
-0.353168
-0.349037
-0.329954
-0.302671
-0.269798
-0.234418
-0.198015
-0.162949
-0.131223
-0.10388
-0.0811019
-0.0625918
-0.0478476
-0.0362938
-0.0273579
-0.0205184
-0.0153275
-0.0114145
-0.00848045
-0.00629009
-0.00466071
-0.00345192
-0.0025563
-0.00189372
-0.00140345
-0.00104169
-0.000773847
-0.0005767
-0.000430199
-0.00032157
-0.000241349
-0.000180681
-0.000137389
-0.000103196
-7.77566e-05
-5.7824e-05
-3.99304e-05
-2.41233e-05
-9.43946e-06
0.149852
0.140257
0.120434
0.0894409
0.0480758
-0.00327539
-0.0630429
-0.127751
-0.190615
-0.243254
-0.278886
-0.295123
-0.294212
-0.281008
-0.260347
-0.235178
-0.207826
-0.179352
-0.151382
-0.125393
-0.102291
-0.0824222
-0.0657593
-0.052064
-0.0409888
-0.0321457
-0.0251534
-0.0196647
-0.0153788
-0.0120438
-0.00945393
-0.00744398
-0.00588303
-0.00466805
-0.00372001
-0.00297713
-0.00239334
-0.00193118
-0.0015643
-0.00126973
-0.00103185
-0.000838741
-0.000678764
-0.000548011
-0.000435396
-0.000340248
-0.000255264
-0.000179581
-0.000105272
-4.08409e-05
0.115377
0.10725
0.0903992
0.0642759
0.0295876
-0.0129103
-0.0618511
-0.11421
-0.164682
-0.20706
-0.236437
-0.251022
-0.252259
-0.243491
-0.2282
-0.209046
-0.187409
-0.164703
-0.141997
-0.120389
-0.100658
-0.0832116
-0.0681695
-0.055462
-0.0449
-0.0362321
-0.0291869
-0.023501
-0.0189348
-0.0152792
-0.012357
-0.0100213
-0.00815217
-0.00665282
-0.00544689
-0.00447301
-0.00368406
-0.0030407
-0.00251429
-0.00207966
-0.00171881
-0.00141775
-0.00116238
-0.00094729
-0.000758792
-0.000596003
-0.00044775
-0.000315784
-0.000184439
-7.14646e-05
0.0867154
0.0798272
0.0654954
0.0433954
0.0141874
-0.0212153
-0.0615728
-0.104313
-0.145205
-0.179587
-0.203953
-0.217002
-0.219647
-0.214156
-0.203032
-0.188296
-0.171234
-0.152925
-0.134238
-0.116046
-0.0990278
-0.083603
-0.0699735
-0.0581758
-0.048131
-0.0396885
-0.0326625
-0.0268581
-0.0220879
-0.0181808
-0.0149864
-0.0123757
-0.0102407
-0.00849162
-0.00705597
-0.00587383
-0.00489798
-0.00408807
-0.00341395
-0.00284881
-0.00237275
-0.00197007
-0.00162449
-0.00132936
-0.00106859
-0.000841204
-0.0006324
-0.000446493
-0.000260432
-0.000100851
0.063005
0.0571497
0.0449356
0.0261592
0.00146115
-0.0281916
-0.0616659
-0.0968007
-0.130208
-0.158367
-0.178762
-0.190448
-0.193988
-0.190913
-0.182994
-0.171725
-0.158195
-0.143298
-0.127742
-0.112255
-0.0974368
-0.0837024
-0.071296
-0.0603215
-0.0507766
-0.042585
-0.0356272
-0.0297637
-0.0248507
-0.0207503
-0.0173363
-0.0144968
-0.0121354
-0.01017
-0.00853252
-0.00716528
-0.00602162
-0.00506089
-0.00425208
-0.00356722
-0.00298495
-0.00248813
-0.00205865
-0.00168879
-0.00136034
-0.00107231
-0.000806528
-0.000569801
-0.000332138
-0.00012857
0.0435181
0.0385172
0.0280703
0.0120363
-0.00895332
-0.0339285
-0.0618646
-0.0909614
-0.118504
-0.141815
-0.159075
-0.169589
-0.173688
-0.172387
-0.166916
-0.158367
-0.147625
-0.135366
-0.122272
-0.108946
-0.0959212
-0.083598
-0.0722417
-0.0619996
-0.0529219
-0.0449876
-0.0381282
-0.0322483
-0.0272403
-0.0229944
-0.0194059
-0.0163785
-0.0138271
-0.0116771
-0.00986503
-0.00833574
-0.00704372
-0.00594859
-0.00501896
-0.00422616
-0.00354765
-0.00296516
-0.00245903
-0.00202068
-0.00163
-0.00128606
-0.000967673
-0.000683958
-0.000398537
-0.000154228
0.0276479
0.0233481
0.0143614
0.000578928
-0.0173781
-0.0385607
-0.0620561
-0.0863734
-0.10933
-0.12887
-0.143668
-0.153201
-0.157638
-0.157631
-0.154009
-0.147561
-0.13897
-0.128816
-0.117675
-0.106081
-0.0945155
-0.083363
-0.0728982
-0.0632953
-0.0546417
-0.0469564
-0.0402103
-0.0343429
-0.0292757
-0.0249228
-0.0211978
-0.0180187
-0.0153104
-0.0130053
-0.0110447
-0.00937591
-0.00795502
-0.0067423
-0.00570635
-0.00481808
-0.00405407
-0.00339519
-0.00282047
-0.00232063
-0.00187392
-0.00147955
-0.00111362
-0.000787384
-0.000458707
-0.000177472
0.014893
0.0111619
0.00336516
-0.00858967
-0.0240949
-0.0422341
-0.0622036
-0.0827706
-0.102166
-0.118795
-0.131676
-0.140405
-0.145034
-0.145957
-0.14372
-0.13888
-0.13196
-0.123452
-0.113852
-0.103638
-0.0932508
-0.0830581
-0.0733378
-0.0642808
-0.0560002
-0.0485448
-0.0419149
-0.0360771
-0.0309765
-0.0265467
-0.0227171
-0.0194177
-0.0165822
-0.0141494
-0.0120648
-0.0102785
-0.00874803
-0.00743471
-0.00630732
-0.00533658
-0.00449844
-0.00377308
-0.00313847
-0.00258479
-0.00208891
-0.0016502
-0.0012424
-0.000878679
-0.000511828
-0.000197985
0.00484503
0.00156645
-0.00528074
-0.0157805
-0.0293423
-0.0450851
-0.0623041
-0.0799763
-0.0966476
-0.111059
-0.122471
-0.130554
-0.135281
-0.136863
-0.135647
-0.132019
-0.126377
-0.119138
-0.110737
-0.101607
-0.0921547
-0.082733
-0.0736194
-0.0650155
-0.0570519
-0.0497988
-0.0432784
-0.037478
-0.0323614
-0.0278779
-0.0239699
-0.0205772
-0.0176411
-0.0151059
-0.0129206
-0.0110378
-0.00941684
-0.00801991
-0.0068162
-0.00577635
-0.00487588
-0.00409446
-0.00340921
-0.00280988
-0.00227223
-0.00179579
-0.00135233
-0.000956629
-0.000557193
-0.000215496
-0.00282203
-0.00575212
-0.0118664
-0.0212449
-0.0333148
-0.0472292
-0.0623667
-0.0778675
-0.0925103
-0.105275
-0.115588
-0.123172
-0.127938
-0.129977
-0.129496
-0.126757
-0.122069
-0.115783
-0.108289
-0.0999835
-0.0912501
-0.0824271
-0.0737903
-0.0655476
-0.0578414
-0.0507566
-0.0443316
-0.0385691
-0.0334472
-0.0289276
-0.0249625
-0.0215
-0.0184872
-0.0158727
-0.0136085
-0.0116496
-0.00995684
-0.00849327
-0.00722846
-0.00613313
-0.00518246
-0.00435577
-0.00362952
-0.00299316
-0.0024216
-0.00191447
-0.00144198
-0.00102021
-0.000594205
-0.000229771
-0.00835999
-0.011036
-0.0166159
-0.0251788
-0.0361659
-0.0487579
-0.0624014
-0.0763564
-0.0895623
-0.101161
-0.110693
-0.11791
-0.122687
-0.12503
-0.125053
-0.122938
-0.118924
-0.113318
-0.106475
-0.098766
-0.0905553
-0.0821713
-0.0738874
-0.0659148
-0.0584036
-0.0514486
-0.0450994
-0.0393699
-0.0342483
-0.0297054
-0.0257011
-0.022189
-0.0191209
-0.0164484
-0.0141262
-0.0121109
-0.0103646
-0.00885124
-0.00754062
-0.00640357
-0.00541506
-0.00455418
-0.0037969
-0.00313247
-0.00253517
-0.00200475
-0.00151021
-0.00106858
-0.000622382
-0.000240613
-0.011953
-0.0144627
-0.0196918
-0.0277246
-0.0380094
-0.0497409
-0.0624171
-0.0753807
-0.0876689
-0.0985224
-0.107551
-0.114528
-0.119303
-0.121832
-0.122171
-0.120449
-0.116867
-0.111697
-0.105277
-0.097954
-0.0900841
-0.0819882
-0.0739374
-0.0661446
-0.0587642
-0.0518975
-0.0456007
-0.0398952
-0.0347759
-0.0302195
-0.0261906
-0.0226468
-0.0195428
-0.0168325
-0.0144721
-0.0124195
-0.0106378
-0.00909132
-0.00775018
-0.00658527
-0.00557144
-0.00468762
-0.00390949
-0.0032262
-0.00261162
-0.00206551
-0.00155617
-0.00110113
-0.000641402
-0.000247791
-0.0137183
-0.0161479
-0.0212017
-0.0289719
-0.0389148
-0.0502238
-0.0624221
-0.0749008
-0.0867439
-0.0972346
-0.106017
-0.112875
-0.117646
-0.120262
-0.120753
-0.119223
-0.115853
-0.110904
-0.104682
-0.0975484
-0.0898465
-0.0818931
-0.0739581
-0.066255
-0.0589402
-0.0521179
-0.045848
-0.0401551
-0.0350376
-0.0304749
-0.0264342
-0.0228751
-0.0197534
-0.0170244
-0.0146451
-0.012574
-0.0107747
-0.0092117
-0.00785531
-0.00667648
-0.00564995
-0.0047546
-0.00396602
-0.00327321
-0.00265005
-0.00209594
-0.00157938
-0.00111728
-0.000651253
-0.00025084
-0.0137213
-0.016147
-0.0212038
-0.0289762
-0.0389138
-0.0502241
-0.0624295
-0.0749091
-0.0867483
-0.0972381
-0.106022
-0.11288
-0.11765
-0.120265
-0.120756
-0.119225
-0.115854
-0.110904
-0.104683
-0.0975493
-0.0898474
-0.081894
-0.0739587
-0.0662553
-0.0589404
-0.0521184
-0.045849
-0.0401568
-0.0350397
-0.0304771
-0.0264359
-0.0228755
-0.0197525
-0.0170225
-0.0146433
-0.0125737
-0.010776
-0.00921351
-0.00785679
-0.00667691
-0.00564923
-0.00475318
-0.00396486
-0.0032732
-0.00265042
-0.00209702
-0.00158015
-0.00111876
-0.000651546
-0.00025212
-0.0119561
-0.014462
-0.0196938
-0.0277285
-0.0380087
-0.0497417
-0.0624244
-0.0753888
-0.0876734
-0.0985261
-0.107556
-0.114533
-0.119307
-0.121835
-0.122173
-0.120452
-0.116869
-0.111699
-0.105278
-0.0979546
-0.0900846
-0.0819888
-0.0739377
-0.0661448
-0.0587645
-0.051898
-0.0456019
-0.039897
-0.0347779
-0.0302213
-0.0261918
-0.0226471
-0.0195422
-0.0168312
-0.0144709
-0.0124194
-0.0106389
-0.00909278
-0.00775139
-0.00658561
-0.00557079
-0.00468633
-0.00390843
-0.00322619
-0.00261195
-0.00206654
-0.00155691
-0.00110253
-0.000641655
-0.000249023
-0.00836313
-0.0110351
-0.0166176
-0.0251827
-0.0361656
-0.0487591
-0.0624088
-0.0763645
-0.089567
-0.101165
-0.110698
-0.117915
-0.122691
-0.125033
-0.125056
-0.12294
-0.118926
-0.113319
-0.106476
-0.0987664
-0.0905553
-0.0821713
-0.0738874
-0.0659149
-0.0584039
-0.0514493
-0.0451006
-0.0393715
-0.0342498
-0.0297066
-0.0257017
-0.0221892
-0.0191209
-0.0164483
-0.0141259
-0.0121109
-0.0103652
-0.00885207
-0.00754142
-0.00640381
-0.00541457
-0.00455316
-0.00379599
-0.0031324
-0.00253539
-0.00200566
-0.00151087
-0.00106988
-0.000622597
-0.000241796
-0.00282521
-0.00575092
-0.011868
-0.0212489
-0.0333148
-0.0472305
-0.0623741
-0.0778758
-0.0925153
-0.105279
-0.115593
-0.123176
-0.127942
-0.12998
-0.129498
-0.12676
-0.122071
-0.115784
-0.10829
-0.0999838
-0.0912501
-0.0824271
-0.0737904
-0.0655479
-0.0578418
-0.0507571
-0.0443322
-0.0385699
-0.033448
-0.0289281
-0.0249629
-0.0215005
-0.0184882
-0.0158738
-0.0136091
-0.0116496
-0.00995683
-0.0084934
-0.00722879
-0.00613328
-0.0051822
-0.00435508
-0.00362876
-0.00299299
-0.00242164
-0.00191521
-0.00144254
-0.0010214
-0.000594383
-0.000230891
0.00484175
0.001568
-0.00528221
-0.0157846
-0.0293423
-0.0450864
-0.0623117
-0.0799849
-0.096653
-0.111063
-0.122476
-0.130559
-0.135284
-0.136865
-0.135649
-0.132021
-0.126379
-0.11914
-0.110738
-0.101607
-0.0921551
-0.0827334
-0.0736199
-0.0650161
-0.0570525
-0.049799
-0.0432783
-0.0374778
-0.0323614
-0.0278782
-0.0239703
-0.0205781
-0.0176429
-0.0151079
-0.0129218
-0.0110379
-0.00941637
-0.00801945
-0.00681613
-0.00577646
-0.00487586
-0.00409406
-0.00340858
-0.00280959
-0.00227209
-0.00179633
-0.00135278
-0.000957684
-0.000557334
-0.000216533
0.0148895
0.0111638
0.00336383
-0.0085938
-0.0240949
-0.0422353
-0.0622112
-0.0827797
-0.102172
-0.1188
-0.131682
-0.14041
-0.145038
-0.145959
-0.143722
-0.138882
-0.131961
-0.123453
-0.113852
-0.103638
-0.0932516
-0.0830591
-0.0733387
-0.0642816
-0.0560008
-0.0485449
-0.0419144
-0.0360762
-0.030976
-0.0265469
-0.0227177
-0.0194188
-0.0165841
-0.0141517
-0.0120663
-0.0102787
-0.0087474
-0.00743392
-0.006307
-0.00533668
-0.00449861
-0.0037729
-0.00313792
-0.00258437
-0.00208859
-0.00165052
-0.00124271
-0.000879578
-0.00051194
-0.00019893
0.0276441
0.0233502
0.0143603
0.000574858
-0.0173779
-0.0385615
-0.0620638
-0.0863833
-0.109337
-0.128877
-0.143675
-0.153207
-0.157642
-0.157633
-0.15401
-0.147562
-0.138971
-0.128817
-0.117675
-0.106081
-0.0945162
-0.083364
-0.0728992
-0.0632961
-0.0546422
-0.0469566
-0.0402099
-0.034342
-0.029275
-0.0249228